/*--------------------------------*- C++ -*----------------------------------*\
| =========                 |                                                 |
| \      /  F ield         | OpenFOAM: The Open Source CFD Toolbox           |
|  \    /   O peration     | Version:  5.x                                   |
|   \  /    A nd           | Web:      www.OpenFOAM.org                      |
|    \/     M anipulation  |                                                 |
\*---------------------------------------------------------------------------*/
FoamFile
{
    version     2.0;
    format      ascii;
    class       volScalarField;
    location    "10.000000000000014";
    object      p;
}
// * * * * * * * * * * * * * * * * * * * * * * * * * * * * * * * * * * * * * //

dimensions      [1 -1 -2 0 0 0 0];

internalField   nonuniform List<scalar> 
400
(
0.0
-9.651066829753988
-20.339114544428885
-27.558021651549183
-30.41908882454153
-28.392913478213124
-21.532796672249606
-10.44934640244575
3.9298930040592963
20.45030326381176
37.78949815150547
54.533437743784724
69.2599900582429
80.65571064697401
87.66047626475469
89.66979380039314
86.88458629510794
80.44765862434168
73.02976180426964
70.54990966514349
71.92769328907988
68.89307585791111
64.34534393070949
61.13229378837184
60.245708049330915
62.404559199579126
67.74346976423772
75.944618572253
86.43986429318888
98.44974196643662
111.0477153835489
123.232046494073
134.0039939658549
142.47684051291907
147.98155062716856
150.113708970452
149.02100325273318
145.64147896155683
139.58553503270636
130.38650392644692
133.4176901207431
123.61079112825881
118.21556239292342
115.40263033091844
114.54052209664643
116.53172030155515
121.36273910845507
128.67233834646476
137.9850431211879
148.6416257730459
159.84770803626776
170.73488040998086
180.41984725867573
188.10493998738983
193.1683030218718
195.12216243028524
193.9329124927836
190.6860146380481
184.48896219411733
173.02725557300602
189.07400831504899
172.44506705047525
165.3187252258276
162.06675732045125
160.72435922152
162.4981874797262
167.17427171758473
174.2655098496015
183.30985469455203
193.68169764905574
204.62770293099896
215.3216098049575
224.9011433344935
232.55953748107393
237.6337300920583
239.49169524514718
237.93208836121067
234.23235641697715
226.8539248326593
211.5361005925411
244.15609305849128
222.79376788892074
214.41501067489259
210.8484165563859
209.19206773487113
210.91807026199152
215.6517652526225
222.7991669076504
231.90827341476054
242.3785907850193
253.48745099333013
264.4318628019509
274.3461262332163
282.39030984222336
287.83020202224725
289.84172045849033
288.02972597346127
283.8867559403059
274.7899360096858
253.89996094237745
295.4461221412176
269.1027432527523
259.1593619565133
255.1855693697731
253.31488152766465
255.24662683146164
260.45352523761176
268.219133511761
278.07413761311096
289.4146413629682
301.51647254397955
313.56101697830115
324.63290921009826
333.80852872334384
340.2267242891103
342.80892877327295
340.9298706507694
336.33699502953726
325.4237840577197
299.0474835128459
341.6757330211919
310.1821534251527
298.6669664757996
294.4173523843688
292.5856347421929
295.1077310984019
301.2960250303468
310.2953102927195
321.6023541430073
334.5931914534719
348.5233282101078
362.5377651986334
375.64588120903164
386.8059776258249
394.9829505612315
398.7804010558268
397.2920782681674
392.50758815444846
379.75864679449126
347.6119485344786
382.14915877500755
345.38305193115514
332.50260973433416
328.33751684423646
326.9911908876942
330.637359819225
338.4063464970285
349.2918732709317
362.755878824912
378.15773388802194
394.73831756092653
411.6085078407902
427.69660786371054
441.82500985128365
452.7453499698617
458.6616896280988
458.3006759266504
453.87172834349883
439.3909842481196
400.75050273667165
415.6581143831608
373.20662371707783
359.22867014291813
355.69766000097087
355.4681383553299
360.94356469039906
371.03011983208194
384.5504550201544
400.93993278503893
419.56056257371824
439.6645927842948
460.35381820910663
480.4907688238891
498.76291054358654
513.6791160464038
522.9436867480996
524.7894266397508
521.6182548503767
505.72947327802143
459.61981566896054
440.7096883920043
391.88170206949627
377.26623277063817
375.23237457675236
377.02313019009256
385.2702553347926
398.5896348671967
415.60496195365187
435.7476692735045
458.4220333864575
482.94344221356084
508.4608316201516
533.8188562414233
557.6022186654247
578.0728097797529
592.3248498131616
597.9289343147207
597.4434797364538
580.800535727578
525.8877622726727
455.45864735640356
399.1591423851462
384.7526566589289
385.60475816491254
390.7434869413562
403.0536545457954
420.76195413717704
442.26359162420846
467.0345545202222
494.5898361380323
524.3940125740421
555.7410665599011
587.5511009051986
618.3865398771611
646.3110268030866
667.7085242111084
679.2672978474759
683.6774294531813
667.5094973783915
601.9679972796016
457.4060260962514
391.88240642631615
379.3031472411538
385.30623429046636
395.78595389429756
413.9793395859509
437.5694764462286
464.70808326106686
495.01370744604037
528.2214503639832
564.0729531262248
602.1562075804404
641.6178645284816
681.1485116562721
718.7594667669033
750.0820262803413
770.657917704284
783.3967180000782
770.0890819462707
691.4281468654717
442.6479604527318
365.40942571187657
358.09105158425024
373.064957617535
391.876843146646
418.48616234935224
449.8405796437936
483.8959727228384
520.6003369108004
560.074560121481
602.5111833933096
647.9936961708264
696.1109876061645
745.9134033911504
795.6368059345222
840.2649226975395
873.9971132465081
900.4461171735509
894.8236887694993
799.9491970292679
404.6162277768306
312.90103516151413
317.6917386495058
347.89686733266376
379.4907444622625
417.95336322882366
459.35368056749843
501.6755611337319
545.5069031834639
591.5889108136623
640.7922062014794
693.9526122294192
751.3994715863979
812.8713136000141
877.2747051774126
939.3811683513858
991.946807581139
1039.9268791297081
1050.3696202945478
936.2683518134415
331.0683170658796
224.5821237603557
253.3937760282517
308.008413393129
359.2320135116886
414.5077820160741
468.7721739237923
520.7363851763445
572.1792413068629
624.7962558339999
680.4321295444279
740.982492689326
807.8934302947216
882.046720840947
963.7689100794845
1048.7835550209577
1128.357190100709
1208.716949056245
1249.5334589993026
1117.2793848093067
188.05766511703075
85.54814296664935
165.72059819516645
258.58267515466537
338.39619736446343
415.9281484231278
485.1181734901466
546.9576580205706
605.3254854391072
663.2633436632143
723.8529219784571
790.2629900719826
865.3344662643614
951.5356995104452
1051.4269223039691
1163.500118163654
1279.023587127283
1408.0444931521754
1513.1532214740473
1389.8867250544665
-92.65528210453499
-119.45471274623429
64.72391607650965
215.38249781641207
332.1652394400006
433.9971832958781
517.1074302402283
586.7596436785742
649.5283625385053
710.0765659284622
772.8426045400954
842.2680156221835
922.7324415637038
1018.7430372811439
1135.37036196521
1275.6039629083768
1436.2438559474265
1633.0894972912286
1849.7402648211632
1823.1462187572788
-561.8650330216194
-374.1648005075851
-77.86158747373509
142.8215896631031
319.63261398717543
455.28311581682493
554.5425243465226
632.2872350077982
698.3982864590531
759.6850289414955
822.4852552659233
892.7398821753051
976.8349027071984
1082.37054268495
1217.9880497553565
1396.9529550627367
1634.1059459299047
1917.6343417055007
2231.9894925111807
2455.169641817514
-1611.2958053142495
-636.2968196704618
-169.59745707007784
105.67218443953794
357.9565119947942
526.6977319852591
630.6084579862534
705.7273612693679
766.4432977434622
820.7773938003085
876.2801770061643
939.4933320321466
1017.6827985970496
1120.5449894795497
1260.7328882575985
1469.6031480004747
1795.2890455700497
2178.1447457810714
2693.1344749134705
3797.4034825684707
-4300.798855649194
-803.6703353600365
323.4232881299608
560.447766133456
729.7567838028817
816.5747513552827
850.3595382367539
874.807585659825
898.9143798357836
924.1338676644284
953.5195166964028
990.0296230114673
1037.0037221896666
1098.8886849119974
1182.1120473034487
1315.2875035662566
1557.4303366933414
1922.436045186333
3086.769423222441
6778.611547436053
)
;

boundaryField
{
    movingWall
    {
        type            zeroGradient;
    }
    fixedWalls
    {
        type            zeroGradient;
    }
    frontAndBack
    {
        type            empty;
    }
}

// ************************************************************************* //
