/*--------------------------------*- C++ -*----------------------------------*\
| =========                 |                                                 |
| \      /  F ield         | OpenFOAM: The Open Source CFD Toolbox           |
|  \    /   O peration     | Version:  5.x                                   |
|   \  /    A nd           | Web:      www.OpenFOAM.org                      |
|    \/     M anipulation  |                                                 |
\*---------------------------------------------------------------------------*/
FoamFile
{
    version     2.0;
    format      ascii;
    class       volScalarField;
    location    "10.000000000000007";
    object      p;
}
// * * * * * * * * * * * * * * * * * * * * * * * * * * * * * * * * * * * * * //

dimensions      [1 -1 -2 0 0 0 0];

internalField   nonuniform List<scalar> 
400
(
0.0
-9.651057705882865
-20.339065872241065
-27.55791297638563
-30.418890812086453
-28.39263267518447
-21.532416783832016
-10.44889858766925
3.9304206295739643
20.45087510510621
37.790102511212496
54.534049681008966
69.26058761064914
80.6562919400737
87.66101993197469
89.67030427191722
86.88505851137631
80.44810836023925
73.03020253097802
70.55034555409823
71.92771230665598
68.89313141788999
64.34547428327075
61.132538556593325
60.24608791475487
62.40509426986414
67.7441403312892
75.94542549751357
86.44076925902904
98.45072699173701
111.04873063351185
123.2330502888747
134.0049612473791
142.47773914921092
147.98236658931904
150.11442310742407
149.02162480535546
145.6420161440116
139.5860148747596
130.38695500344699
133.417751662759
123.6109457969568
118.21586262013047
115.40313409341493
114.5412627131065
116.5327014405545
121.36395822079328
128.67374725330336
137.98660592107836
148.64327454086344
159.84938032846642
170.73651543332087
180.4213782441902
188.10632986073244
193.1695127987398
195.12318022227856
193.93374415978795
190.6866836475264
184.48951214900978
173.02774479812916
189.07415057808055
172.44536716840852
165.31926838848932
162.0676182796408
160.7255788656211
162.49976990455576
167.17619072098807
174.26770581548124
183.31225064920812
193.68420424579892
204.630216627251
215.3240293716727
224.90338766080336
232.5615418347071
237.63544123323143
239.49310056365468
237.93319267562487
234.23319739867514
226.85456784891753
211.53663931541337
244.15633497592577
222.7942485322513
214.41583203643142
210.84969215640032
209.1938255607434
210.92032613417206
215.6544655095648
222.8022353099369
231.91159047429892
242.38202464962566
253.4908718605321
264.43514065279055
274.3491439825052
282.39296982653593
287.83245551999903
289.84353439793153
288.03112814861726
283.88778294144595
274.7906842995684
253.90055881737803
295.4464857590634
269.10341010886117
259.16048928308504
255.18727244665928
253.31721821292922
255.249575419002
260.457044068163
268.22308454455964
278.07838879427874
289.41902005277905
301.52080803574387
313.5651453910757
324.63668283209836
333.8118511651906
340.2295034274208
342.8111586737658
340.93156085114333
336.3382085589035
325.4246351335721
299.04813694523165
341.6762110830885
310.1830065603423
298.66838448968053
294.41948203359664
292.5885131857938
295.1113637681256
301.3003050125491
310.300117176032
321.6074851751822
334.5984496925725
348.5285083929245
362.54267940469373
375.6503596916024
386.8098811416457
394.9862216904833
398.78299209578125
397.29403378029696
392.5089695371261
379.7595885757992
347.6126515153503
382.14974161987624
345.3840652619593
332.5042821584167
328.34000711083877
326.9945579955966
330.6415623031918
338.4113044992187
349.2973931825183
362.7617627526852
378.1637265200132
394.7442019263825
411.61406825031463
427.7016476914542
441.8294024201675
452.7489933470844
458.6645854032057
458.30283511546867
453.8732416605655
439.39200122766874
400.7512406262028
415.6587842922887
373.2077608085387
359.2305431506087
355.7004331085346
355.4718714073214
360.9482166773136
371.0355792438709
384.55652517942536
400.9463588022467
419.5671053603252
439.6709842717986
460.35983227895304
480.4962087951769
498.76762950331977
513.6830319223103
522.9467783188086
524.7917358636271
521.6198630703574
505.7305473227494
459.6205842722559
440.71041042143753
391.882915509996
377.2682183940576
375.2353221510807
377.02708249153693
385.27517487791926
398.59538927374314
415.61133687211543
435.75441427285386
458.4288556482433
482.95009847634105
508.4670783168178
533.8244871808843
557.6070914732464
578.0768484118539
592.3280358976019
597.9313134114186
597.4451369200269
580.8016437744593
525.8885481802671
455.45937769206563
399.1603649722456
384.75466435390354
385.6077468784861
390.7474916631839
403.05864034213266
420.76777333130684
442.27002613283145
467.04134231056685
494.5966888329062
524.4006725664299
555.7473110407026
587.5567100325433
618.3913909034314
646.3150393808494
667.711692794508
679.2696656185179
683.6790824751213
667.5106084851196
601.9687836525455
457.40672052718617
391.8835648839282
379.3050796676257
385.30912041247916
395.78984183290856
413.98417235107087
437.57512439559997
464.71431717091366
495.02026284165174
528.2280681486833
564.0793745182547
602.1622006857667
641.6232577881043
681.1531614909446
718.7633156063685
750.0850652295704
770.6601924714
783.3983205653312
770.0901633893199
691.4289183547485
442.64856945322134
365.41046068151917
358.09280843503944
373.0676080605713
391.8804354187586
418.49063203932917
449.845810821809
483.9017424187838
520.6064077180828
560.08066875198
602.5171084151627
647.9992336030479
696.1159496242601
745.9176964449191
795.6403480330774
840.2677367571833
873.9992239550681
900.4476174313453
894.8247204485821
799.9499390229779
404.6167207222696
312.9018890716395
317.6932407322558
347.8991663783265
379.493875036531
417.9572942921522
459.3582738325579
501.68064659126634
545.5122542822648
591.5943028754101
640.7974329345303
693.9574950236773
751.403863111536
812.8750943268511
877.2778555603122
939.3836583115734
991.9487038994379
1039.928242728719
1050.370581483705
936.2690572228345
331.0686510786851
224.58275708858417
253.39494501799837
308.01025883110475
359.2345657431554
414.51100662118307
468.77598082916273
520.7406049449163
572.1836981212025
624.8007640843613
680.4365125261946
740.9865900196714
807.8971115065874
882.0499217747571
963.7715615427242
1048.7856836392148
1128.358813764927
1208.7181473021494
1249.5343312385314
1117.2800413321727
188.05782172485317
85.54852846372603
165.72139964773606
258.5840097509723
338.398094536861
415.9305916992076
485.12109156919206
546.9609310961282
605.3289712922502
663.26688364555
723.8563801893507
790.2662422310516
865.3374057900226
951.5382508143027
1051.4290668471338
1163.5018385811802
1279.0249330599952
1408.045507199193
1513.1539921180843
1389.887325476098
-92.65529942350155
-119.45457724476499
64.72434773445818
215.3833171860248
332.166476269061
433.9988388910069
517.1094517597811
586.761954158636
649.5308527623532
710.0791363215652
772.8451376577657
842.2704103331189
922.7346230206535
1018.7449588187344
1135.371986085838
1275.6052976193391
1436.2449146825256
1633.0903291192517
1849.7409308095287
1823.14676058294
-561.865204163751
-374.1648751557938
-77.86148823921492
142.82193835489912
319.63324993011696
455.2840360438757
554.543724469498
632.2886460399577
698.3998585916718
759.6866743110136
822.4869093230786
892.7414743379735
976.8363723169198
1082.371861618048
1217.9891935992387
1396.953915548024
1634.1067418331722
1917.6350013388596
2231.9900563306696
2455.1701368316158
-1611.2960758531435
-636.2970557704452
-169.59760034721603
105.67218158748686
357.9566797225094
526.6980975876879
630.6089948512083
705.7280656765886
766.444120750614
820.7783056674137
876.2811235542912
939.4942635581646
1017.6836939583623
1120.5458188855753
1260.7336429490003
1469.6038191180107
1795.2896383105237
2178.145275604741
2693.1349674281387
3797.4039469500226
-4300.7991716750485
-803.6706412327584
323.42299553830765
560.4475350039841
729.7566538512011
816.5747312994426
850.3596587582736
874.8078179395759
898.9147300833426
924.1343038309723
953.5200160284766
990.0301599031269
1037.004261545255
1098.8892300611142
1182.112573161799
1315.28800796341
1557.4308145031428
1922.436510860093
3086.769876578308
6778.61200253588
)
;

boundaryField
{
    movingWall
    {
        type            zeroGradient;
    }
    fixedWalls
    {
        type            zeroGradient;
    }
    frontAndBack
    {
        type            empty;
    }
}

// ************************************************************************* //
