/*--------------------------------*- C++ -*----------------------------------*\
| =========                 |                                                 |
| \      /  F ield         | OpenFOAM: The Open Source CFD Toolbox           |
|  \    /   O peration     | Version:  5.x                                   |
|   \  /    A nd           | Web:      www.OpenFOAM.org                      |
|    \/     M anipulation  |                                                 |
\*---------------------------------------------------------------------------*/
FoamFile
{
    version     2.0;
    format      ascii;
    class       volScalarField;
    location    "10.000000000000007";
    object      T;
}
// * * * * * * * * * * * * * * * * * * * * * * * * * * * * * * * * * * * * * //

dimensions      [0 0 0 1 0 0 0];

internalField   nonuniform List<scalar> 
400
(
299.8041958413023
299.72428426333147
299.89848125699666
300.1086272075255
300.2785793411355
300.4251417097686
300.55395596444237
300.66554671756137
300.7619899936955
300.8437108463332
300.9088976126908
300.9522999560913
300.96613308247856
300.942774122528
300.86949114810415
300.7349989840871
300.5353661346201
300.2763836736924
299.94392169254144
299.82759657168856
301.2528581869402
302.90886015417067
304.1024238581681
305.0095260406434
305.65394173298756
306.1015410521048
306.3845254681683
306.5311881323181
306.5715363867749
306.53000549545766
306.42698053911744
306.27106908805877
306.0604083114667
305.7925781981625
305.4725559835647
305.08832410772493
304.6107165388197
304.03901166832526
303.1665317637329
301.19736922760944
300.9620085944707
302.06777755964305
303.5166430370725
304.6824290461701
305.56538176029227
306.26627647606125
306.7947200320588
307.17396267182545
307.43272969610325
307.58963568805825
307.6564602648719
307.6269478264118
307.4766789185768
307.1839280095167
306.73357915514794
306.1000537116493
305.2468516988355
304.2474220777092
303.0508868360588
300.8747718892325
300.9219813744247
301.761464701424
303.5674259028073
305.0235841828001
306.1465526589697
307.09020669835184
307.84370757097594
308.4275315576332
308.87001829037735
309.1839965316325
309.37430006292266
309.4236342198225
309.292085910658
308.94674774821425
308.36549580329256
307.5180759030787
306.3660052421736
305.043079602768
303.56232465684343
300.8902866635606
301.1050468655091
301.9753924859262
304.18842094490066
305.96468193009383
307.34339653692774
308.52843022391204
309.49589055007846
310.2662821902935
310.868598214609
311.31058793680353
311.5896369908944
311.68145197126915
311.5414397384504
311.1313086782822
310.42539343734353
309.3865585172948
307.96623597160175
306.3497149942138
304.56343558346975
301.12386040716774
301.26445296638997
302.13890850867017
304.73238549794735
306.8181005831451
308.4455040834732
309.86565474599576
311.043878269261
312.00019848836115
312.7636406486791
313.3372787527228
313.71331883482964
313.86255756576844
313.73279434419675
313.27975846956156
312.472681852984
311.26359305647753
309.58838442769127
307.678160120145
305.56738918920826
301.3467499183706
301.43223737769125
302.32825669094507
305.314595733806
307.7112619285867
309.584363006999
311.23544673799813
312.620561348456
313.7595712187479
314.6815472803604
315.3851455816894
315.85774797488403
316.0673411671172
315.95661894454736
315.4762942698451
314.5895380853511
313.23395349173217
311.32463222135
309.1304485420859
306.6723292848922
301.5930173266601
301.62162121487023
302.55575791479845
305.9549657719456
308.666202590816
310.7810555255547
312.6565495397287
314.2405301861958
315.55372929951756
316.6260295010599
317.45230998993316
318.0155177712256
318.28363621049516
318.19822043793874
317.70573330432705
316.76182891902045
315.28569004774323
313.1668089429133
310.71123373225026
307.9061566585673
301.86611029727004
301.82337873700413
302.78037360647915
306.61280707163223
309.63873929379923
311.98435150980947
314.07100357830444
315.83886932507824
317.31106596019293
318.52008503901214
319.45859645333525
320.1067698698578
320.43517724162615
320.38670870462585
319.9028422887746
318.92905810190496
317.36138782479134
315.06032715220465
312.380110035389
309.25862527169545
302.1504483747742
302.03669486796576
302.97761365789177
307.27272931214833
310.61035648667
313.1663274483912
315.44216189443506
317.3702513429994
318.97854717433677
320.30546205926686
321.34395145728047
322.07337845050864
322.46869372440744
322.4762956665014
322.02994034157075
321.05988145753605
319.43143517937773
316.97246196917814
314.11429983723457
310.74112814637544
302.43597951873676
302.2639353081167
303.1184403329069
307.9234120363655
311.5644187169993
314.29661785027207
316.7279184827637
318.781265399774
320.49328227635675
321.91353795465125
323.0388923424018
323.85052638552196
324.32855447060524
324.42456051506093
324.0591336273492
323.1383778792726
321.48284064292193
318.8767046742916
315.8809766256114
312.3619163105694
302.70566438395804
302.5116280205261
303.16168751375295
308.55186605192347
312.4741550753377
315.3291969749901
317.86937021922716
320.0006214264088
321.77375197377665
323.2568673373705
324.4556734381653
325.3574243475152
325.94760704192703
326.1839877640568
325.9661594925569
325.1631333593533
323.5261809556793
320.7616881559449
317.63156939827206
314.11474601866723
302.92927340657434
302.78284068107916
303.0580634502116
309.16893553343215
313.325450741482
316.22319225206616
318.81159360066005
320.95913902049296
322.73827030094156
324.24498001873246
325.4996818876443
326.50261799000054
327.2462251646653
327.69520246884775
327.7195985891473
327.13562774192786
325.5891366797749
322.63266499288693
319.29317591012665
315.9619598272256
303.0866450359897
303.0579060521723
302.7803105274441
309.8554640742545
314.1594826887565
316.9765580835347
319.52525789789553
321.60511660218316
323.31974059726684
324.7996883019891
326.0834244990708
327.1941978863759
328.1385960146945
328.88992319068154
329.2835614853396
329.0681468240822
327.7446789803489
324.5728947779051
320.799825648221
317.73338986839536
303.16887213978583
303.42131036967396
302.46717288373776
310.63875485173804
314.8564831228171
317.4516249280996
319.88157732962713
321.8202467030355
323.4199390564381
324.8417376945545
326.134611402729
327.35861825181314
328.5540399415469
329.70527852718845
330.6250191464309
330.9981543347101
330.1747280597688
326.9042056702661
322.26247447547775
319.02781777905415
303.13661049852846
303.8216486552677
302.61466374511014
311.7050555304656
315.31850704624156
317.60521023312947
319.920250585269
321.68918330114127
323.16684310289713
324.53870145978533
325.8275326805382
327.13898121421687
328.5680620156243
330.1249769267206
331.644940939291
332.78908559273117
332.84183653695646
329.86492314489664
323.92389813938087
319.4750567304703
303.75902307725045
302.578498986493
304.37320319780946
314.9525153004572
317.37820562315943
318.95786754031604
320.81149827937645
322.15807288433547
323.3693230009583
324.5977811954546
325.8571418968692
327.21337797524956
328.7542699896548
330.5062367283341
332.4066176949547
334.2307204959672
335.3090943880173
333.3162713634585
326.14700407040937
318.20635569686056
306.96716607028196
303.2426617656208
311.9666582054154
319.08141344498085
319.27277850302505
319.9628724954388
320.98954159733734
322.06306016756787
323.34714480134505
324.7717107430362
326.28664033114075
327.92408988779425
329.7510834316673
331.8315399762634
334.2530787742723
336.8675135716102
339.0686319474275
339.90698429034165
332.87146380450145
312.75678844775393
308.58541598994486
320.51881023524584
333.35959011015296
314.81924105734726
311.266149626246
314.5412794755951
317.7840217844943
320.72768446274983
323.56385742637235
326.14703702806895
328.4960164112499
330.73947316017455
333.02577628427287
335.5416437276715
338.60981935659464
342.34497145787776
346.60858867302653
352.83435979520385
349.68777411376146
307.75023189643525
308.1572535349654
287.7665514506067
351.9154887242553
344.84705799886194
341.3349515824741
342.6282878943846
343.1981790618994
343.34965991363345
343.5873488093526
343.86568980566335
344.1497734109334
344.43855730174295
344.68723411909934
344.8827987249223
345.0475682972873
345.0168390205647
344.5835129364283
345.8534071496107
343.3536463917179
314.4792790805123
365.6738428850861
)
;

boundaryField
{
    movingWall
    {
        type            fixedValue;
        value           uniform 350.0;
    }
    fixedWalls
    {
        type            fixedValue;
        value           uniform 300.0;
    }
    frontAndBack
    {
        type            empty;
    }
}

// ************************************************************************* //
