/*--------------------------------*- C++ -*----------------------------------*\
| =========                 |                                                 |
| \      /  F ield         | OpenFOAM: The Open Source CFD Toolbox           |
|  \    /   O peration     | Version:  5.x                                   |
|   \  /    A nd           | Web:      www.OpenFOAM.org                      |
|    \/     M anipulation  |                                                 |
\*---------------------------------------------------------------------------*/
FoamFile
{
    version     2.0;
    format      ascii;
    class       volScalarField;
    location    "10.000000000000014";
    object      T;
}
// * * * * * * * * * * * * * * * * * * * * * * * * * * * * * * * * * * * * * //

dimensions      [0 0 0 1 0 0 0];

internalField   nonuniform List<scalar> 
400
(
299.8044515554596
299.72503306294806
299.89967633649894
300.11019836781264
300.2804439202834
300.42721517763744
300.55616073745307
300.66781570933847
300.7642695293026
300.84595714283654
300.9110760861387
300.9543775295121
300.9680754192174
300.9445479435539
300.87106008842585
300.736329157211
300.5364283742061
300.2771564345524
299.9443907848146
299.8277538705915
301.2536282380747
302.9111131482646
304.10601338325296
305.0142356467295
305.6595180804751
306.10772920882556
306.3910922589302
306.5379367358199
306.5783064344459
306.53667094038246
306.4334436617964
306.2772351337682
306.06617285805805
305.7978323639819
305.4771976083991
305.0922582949687
304.613860982068
304.04130073043257
303.1679201128706
301.19783345997627
300.96328746366623
302.0715022211612
303.5225594593006
304.6901603778837
305.57449679321616
306.27635180770403
306.8053766589993
307.18488340042836
307.443659141095
307.60036989277626
307.66683464762656
307.63681087596945
307.485869723669
307.19228642409996
306.7409522248817
306.1063000950023
305.2518466945917
304.25106447414913
303.05310286348646
300.87551431831946
300.92376139577266
301.7666302517195
303.57560778418576
305.0342281724963
306.15903756006577
307.10393815366206
307.85816383215774
308.442282993578
308.8847224847297
309.1983808544851
309.3881428688791
309.43673472115916
309.30424180509505
308.95776418806753
308.3751906524377
307.52628179175537
306.37257094742955
305.04787698720713
303.56525203166507
300.8912686583103
301.107317592256
301.9819614701963
304.19879183792034
305.9781077076073
307.3590543584324
308.5455509616063
309.51381168641376
310.2844674369615
310.8866259981243
311.32812675472553
311.6064213620393
311.69724597518444
311.5560172708468
311.1444610535553
310.4369315683046
309.39630994479654
307.9740410117229
306.355430006964
304.5669343801261
301.1250358707795
301.2672002157189
302.14682638817084
304.7448413703185
306.83414005719663
308.46409411706503
309.8858494122299
311.0648778473665
312.0213668924302
312.78448794655355
313.357427757676
313.7324739715846
313.8804671510518
313.74922758600326
313.29451096029834
312.4855743195169
311.27446486622836
309.59708332437407
307.6845407471977
305.57130822668984
301.34806916074825
301.4354457357631
302.3374692821831
305.329032717629
307.7297483987415
309.6056480943358
311.2584084923506
312.64426811674025
313.78329815264107
314.7047472638969
315.40740925724026
315.8787680423557
316.0868676713417
315.974428335305
315.4921960235616
314.60337346417685
313.24558366776836
311.33392507254536
309.13727082087195
306.6765312282266
301.59443442519506
301.6252775858256
302.5662149182105
305.97128585384127
308.6869779675369
310.8048139534709
312.6819974018898
314.2666158060496
315.57965043023063
316.6511968914699
317.4762974531101
318.0380202638561
318.30441636009806
318.21706661426765
317.72246943550107
316.7763156163635
315.2978154173624
313.17646922817835
310.71832185848035
307.9105309174205
301.86758769045093
301.82747283210193
302.79203009305985
306.63092035546657
309.66165792605784
312.01038391382997
314.0986969098545
315.8670673995882
317.33890621505356
318.54695070661666
319.4840572794741
320.130529950526
320.4570137052093
320.40641588954963
319.9202490415003
318.9440376134884
317.3738524043264
315.07020896217495
312.3873422783616
309.26309134493465
302.15195841248914
302.04121967043426
302.9904311154019
307.2925555847343
310.63529041635235
313.1944662786849
315.4719145294757
317.4003775056354
319.00814389918975
320.3338979329613
321.370794673322
322.09834167309566
322.4915601179399
322.49684743467435
322.047995742514
321.07531519747516
319.44417929565776
316.9824900722229
314.1216011088768
310.7456317566527
302.43750284029846
302.26888811653964
303.13238554999884
307.9448807251372
311.5912566799719
314.3267292735594
316.75960191837316
318.81322331033743
320.52458863739645
321.94355462481457
323.0671827747222
323.8767949181261
324.3525702772225
324.4460722787679
324.0779289126977
323.1543196548912
321.4958770469804
318.8868556520258
315.88830507749805
312.36642081567106
302.70718740184213
302.5170117999047
303.17673022244935
308.57491021612145
312.5027937205973
315.36116919018264
317.90289966238424
320.0343829349858
321.8068119731106
323.28858260874955
324.485591654851
325.38521428859855
325.97299372507035
326.20666294942504
325.9858601814681
325.17969813117395
323.5395698342847
320.7719719114499
317.63890292161756
314.11922468757217
302.93078565824266
302.788663816036
303.07416882368483
309.19347735157174
313.3557724370718
316.25690467387557
318.8468889568502
320.9946918712963
322.77315460298644
324.2785470155964
325.5314458877485
326.53218447113426
327.27324070255077
327.7192765363367
327.7404012058386
327.15296122236646
325.6029647535546
322.6431103612509
319.30050144196485
315.96638917525877
303.0881369539216
303.0641779600337
302.79741646217843
309.8813816030993
314.19130843389104
317.01181954578846
319.56216233070234
321.64236281806006
323.35642309734186
324.835156427116
326.1171543100225
327.22571099184734
328.1674279920306
328.91558565247965
329.30564083855495
329.08639389248566
327.7590433719193
324.5835409258517
320.8071341423422
317.7377433386089
303.17033345889917
303.42802528669296
302.48514501123657
310.6657935246992
314.8894519902495
317.4880321942478
319.91968982180606
321.85880906845233
323.45807781544823
324.8788131824194
326.170082748602
327.391939031161
328.58462380759744
329.73253664077106
330.6484387281945
331.01741164297385
330.18971959446594
326.9151002774108
322.2697622543618
319.03206321927036
303.13802899389935
303.82873105723144
302.63320228206754
311.7326782299541
315.35188322616636
317.64193212436345
319.95868405475164
321.72812965216235
323.2054786770263
324.5764171669586
325.863826350566
327.17331114226755
328.59977951561206
330.153412526062
331.66946840253166
332.80929342524695
332.8574863208277
329.87610243862713
323.93116824962834
319.4791609607705
303.7603889184056
302.5856222603289
304.3916432794626
314.9797538531845
317.41075186994203
318.9934613743878
320.8486162980015
322.19560389046
323.4065605489623
324.63420898551743
325.8923130906855
327.2468203417414
328.78541401556004
330.5344966503539
332.43139046081427
334.25143453449016
335.3252408971793
333.3276948723819
326.15425841402487
318.21028481543686
306.9684765052242
303.2491546919788
311.98369662539886
319.10612110992287
319.3019261886073
319.99430675344456
321.0219942471212
322.0957169620668
323.37948364632695
324.8033411341771
326.3172242880017
327.9532933061612
329.7785484414248
331.8568457944577
334.27573416164023
336.8869557991317
339.08427858237604
339.91845802828374
332.87871744231575
312.760474594403
308.5866490032169
320.5239872896229
333.3730919183134
314.8369842579325
311.2864133209343
314.5630434068538
317.8064529352992
320.75026274997555
323.5862503537145
326.168987238625
328.5173093032434
330.7599316064657
333.04525360600286
335.5599241916281
338.6266254860461
342.3599323663892
346.6212322706583
352.84426474356104
349.6944940734198
307.7535326521667
308.1583924839648
287.76856475358016
351.92133758437893
344.85461369966583
341.34335548152114
342.63710447671605
343.2070716261714
343.35845024405927
343.5959458418855
343.8740320623954
344.15780960043173
344.44624302978593
344.6945530741087
344.88971881753594
345.0540283370455
345.0227417655141
344.5887230931572
345.8577963869355
343.3570052611591
314.48126366751876
365.6748709760598
)
;

boundaryField
{
    movingWall
    {
        type            fixedValue;
        value           uniform 350.0;
    }
    fixedWalls
    {
        type            fixedValue;
        value           uniform 300.0;
    }
    frontAndBack
    {
        type            empty;
    }
}

// ************************************************************************* //
