/*--------------------------------*- C++ -*----------------------------------*\
| =========                 |                                                 |
| \      /  F ield         | OpenFOAM: The Open Source CFD Toolbox           |
|  \    /   O peration     | Version:  5.x                                   |
|   \  /    A nd           | Web:      www.OpenFOAM.org                      |
|    \/     M anipulation  |                                                 |
\*---------------------------------------------------------------------------*/
FoamFile
{
    version     2.0;
    format      ascii;
    class       volVectorField;
    location    "10.000000000000007";
    object      U;
}
// * * * * * * * * * * * * * * * * * * * * * * * * * * * * * * * * * * * * * //

dimensions      [0 1 -1 0 0 0 0];

internalField   nonuniform List<vector> 
400
(
(0.0002908822491454759 0.0027900680042379426 -7.339075312605299e-21)
(0.0004618250156954359 0.0051499774183572655 7.15518628935696e-20)
(-0.0008303337044019883 0.0063287812053817 -3.111015167366154e-20)
(-0.0032798056167196448 0.006957251722021123 -7.50251436510761e-20)
(-0.006301417418722156 0.0072301199275979335 -5.212353571830727e-19)
(-0.009487183779284014 0.007243820149882072 -1.0613260153145074e-18)
(-0.012490326413454976 0.00705779092299155 -1.18105386141706e-18)
(-0.015016406998708149 0.0067201626176061294 -1.1462553390991506e-18)
(-0.016841651313064247 0.006272952877149164 -1.412863381195031e-18)
(-0.01781038417931837 0.005755269632732603 -1.931087496579579e-18)
(-0.017835534754817035 0.00520716708704463 -2.205794965681001e-18)
(-0.01690377438181396 0.0046725759860139215 -3.096269290855802e-18)
(-0.015081785262081251 0.004200549463738547 -4.2158135625767695e-18)
(-0.012522258308808045 0.0038453835473626183 -5.038127080257527e-18)
(-0.009469742951323853 0.003667521201027124 -6.012368340416666e-18)
(-0.006262090234806507 0.0037219778739236496 -5.424039180308094e-18)
(-0.0033044487077421693 0.004025272937919885 -4.852997649065428e-18)
(-0.0010401836440410458 0.0045066431628390325 -4.094710142640602e-18)
(0.00017617335926597077 0.004855145032701144 -2.8336136183966135e-18)
(0.0005552114619203866 0.003606324869278744 -1.110311996196543e-18)
(0.00033844201812019544 -0.0006714891666057777 1.4210171150019974e-19)
(-0.001470433487662293 0.0012969351833480626 9.24757982217429e-19)
(-0.005595261972425991 0.003341998829063567 1.834437089408969e-20)
(-0.011680285932880794 0.004708801061222092 -5.721614145690855e-19)
(-0.01891383931150757 0.005372819251592926 -1.7542890410136395e-18)
(-0.026482573899086995 0.005357492388477058 -3.68280325793232e-18)
(-0.033597530456173724 0.004745076613917461 -3.875630399211323e-18)
(-0.0395745633950801 0.0036551513887822674 -3.311613942078059e-18)
(-0.04388395131932155 0.002211822571935438 -4.363246132423201e-18)
(-0.04615552136248196 0.0005426309092814208 -6.372212554751051e-18)
(-0.046187257475555944 -0.001217527354115744 -6.069806981851848e-18)
(-0.04395759019762317 -0.002925032405739388 -9.05146090950314e-18)
(-0.039635624950482895 -0.004426158194618514 -1.2924242842675744e-17)
(-0.0335846545575241 -0.005560531477278444 -1.495583241502746e-17)
(-0.026359529833682446 -0.006169273035516271 -1.5176730208261684e-17)
(-0.018698505530780684 -0.006110045415890316 -1.6533060934627604e-17)
(-0.011431954233072417 -0.0053130078907293 -1.465550591101928e-17)
(-0.005338139783190072 -0.003809964825980462 -1.1396580712414016e-17)
(-0.0014267529684858554 -0.001714966890531855 -8.794785826159028e-18)
(-0.0004839923824644341 2.8052706142413184e-05 -3.8089343242620495e-18)
(-0.0009163928395933 0.00048010203710645977 1.4410077289163553e-18)
(-0.0038120092152589325 0.005117073838355555 3.996036148399207e-18)
(-0.010670779939637725 0.009779406524641533 2.388247378563217e-18)
(-0.020127585363577904 0.012952119341775311 2.064427442234802e-18)
(-0.030881167833222967 0.014468914061880448 1.0675322020246344e-19)
(-0.04193949552398848 0.014331536895406382 -3.6433483666162765e-18)
(-0.05223744998924636 0.01270533372111336 -5.9654824916650995e-18)
(-0.06083850984038889 0.009864557870471512 -6.707161003073003e-18)
(-0.06701960171760474 0.006117453404011099 -8.213908779052685e-18)
(-0.07027211357966098 0.0017927511077941542 -1.0424209918705608e-17)
(-0.07031894164965183 -0.002759989492435114 -1.1421759263222229e-17)
(-0.06713134375585496 -0.007169625081321868 -1.401199740748659e-17)
(-0.06094101565454428 -0.011046755505075579 -1.88070057267885e-17)
(-0.052241465749212096 -0.013996934796620527 -2.2084619497955152e-17)
(-0.04177912904552715 -0.01564581378967419 -2.339427856723638e-17)
(-0.030546816792510298 -0.015684286707550815 -2.3245593669034953e-17)
(-0.019663484494612495 -0.013966235988061558 -2.152384375378105e-17)
(-0.010129253293687954 -0.010588505248650947 -1.792901181575296e-17)
(-0.00330884346367994 -0.005899175821937346 -1.2589682983571091e-17)
(-0.0006989843564840393 -0.0011346893087642793 -4.592886287541747e-18)
(-0.0016000500470758367 0.0033203513513490545 3.975592563956947e-18)
(-0.0056505505451731955 0.012300910928246842 7.45951410087263e-18)
(-0.015324696577120813 0.02026645314996679 4.100378621742813e-18)
(-0.02810007078270823 0.02559100817001461 2.2392151566695257e-18)
(-0.04215115958393118 0.027994647005921285 -5.47127858729665e-19)
(-0.05635228563124561 0.027499921671307007 -5.063443625822743e-18)
(-0.06942973511347675 0.02439725786797455 -9.983949933228981e-18)
(-0.08027391617621123 0.01915353227941741 -9.656456709603304e-18)
(-0.08804158232929966 0.012307494345064751 -1.177759637230837e-17)
(-0.09213757019162848 0.004441033414027027 -1.6086248983867402e-17)
(-0.09223428186880568 -0.0038266390843014427 -1.5232217395586415e-17)
(-0.08829115885001193 -0.011839899638514768 -1.659366206112349e-17)
(-0.08056859734466743 -0.01891448010689605 -2.600992379572907e-17)
(-0.06963227332943611 -0.02436294795850843 -3.0980780823821983e-17)
(-0.0563491217127528 -0.02753986681816939 -3.2853802001411576e-17)
(-0.041899374394673984 -0.027920656662234897 -3.1173207180443706e-17)
(-0.02764680006562489 -0.02524363125170166 -3.019461865978606e-17)
(-0.014825071545603433 -0.01962583432686819 -2.6250044582347605e-17)
(-0.005275696529596137 -0.011609790947578774 -1.9111067817388262e-17)
(-0.0013082885337559354 -0.002962686747146792 -6.5763198423347925e-18)
(-0.002118167021924676 0.00671311186537415 5.306294484392523e-18)
(-0.00741289963505345 0.020955211167803266 1.000819283911082e-17)
(-0.019810436479150238 0.032721504058443054 4.898550584818967e-18)
(-0.0357762030467986 0.04034212906194051 3.816672869621128e-18)
(-0.05296711996872543 0.043511917111523565 6.977106757854402e-19)
(-0.07009682243698344 0.042356185555807946 -6.088209974181134e-18)
(-0.0857111807820071 0.03734466328161807 -1.0633860044358235e-17)
(-0.09857536283905717 0.029172308379538787 -1.0436424242858164e-17)
(-0.10777326348537757 0.018635686816173936 -1.3083416129607322e-17)
(-0.11265866319196619 0.006592066785547038 -1.801388265329742e-17)
(-0.11286853270597266 -0.006049106354862532 -1.6994104569637562e-17)
(-0.10834142240247413 -0.018327704204191397 -1.972635108366151e-17)
(-0.09933488171183312 -0.02924118519226099 -2.8330499918104515e-17)
(-0.08643846963737077 -0.03777590478981089 -3.3520064106613744e-17)
(-0.0705853144127507 -0.04296984787475418 -3.609940573043523e-17)
(-0.053098588585848976 -0.044021947335447155 -3.514467920134478e-17)
(-0.0355587333527581 -0.040476700660729094 -3.244880364494158e-17)
(-0.019424092701119305 -0.03237192966253709 -2.861950939365457e-17)
(-0.007113900739092612 -0.020293306025539967 -2.1782013790358605e-17)
(-0.0019326830231753056 -0.006236122457427125 -9.13131481162013e-18)
(-0.0026600628585814728 0.011062141182752552 4.4124616865416106e-18)
(-0.00915092167477866 0.03188020926579513 1.4476645278159316e-17)
(-0.02420848944342142 0.048168869598832764 8.930958408146861e-18)
(-0.04330113164446394 0.05830777064385097 7.545146568952449e-18)
(-0.06353349233883654 0.06213246327519297 5.574487091768682e-18)
(-0.08344695461839703 0.05998978654493961 -3.3930721248251984e-19)
(-0.10143167097949524 0.05261101881994855 -7.314657808375735e-18)
(-0.11616610233777337 0.040973164604511135 -8.531567197009299e-18)
(-0.12670088557486028 0.02616087131735972 -1.1726051798692145e-17)
(-0.13236847368477084 0.009320559778036887 -1.6610599635885438e-17)
(-0.13278147679335364 -0.008343263773987775 -1.4983558390252565e-17)
(-0.12784594045734687 -0.025560069930038398 -1.667682497816504e-17)
(-0.11778333511707867 -0.040993249462723536 -2.5321696095763198e-17)
(-0.1031583625759819 -0.05327026359074982 -2.857117027720537e-17)
(-0.08491770596216722 -0.06105570807419458 -3.310094441262117e-17)
(-0.06448760064151121 -0.06318816640102694 -3.032132287297254e-17)
(-0.04365135833566695 -0.05891106570317479 -2.777334923813371e-17)
(-0.024112225290351546 -0.048070497135824196 -2.3822822113559502e-17)
(-0.008928883785267048 -0.03120136767962038 -1.9231863092959897e-17)
(-0.0024726349081505305 -0.010427311597352875 -8.069377893640423e-18)
(-0.003199346397091261 0.016364057917539237 3.3995766840394175e-18)
(-0.01089212164327569 0.04507048525029767 1.1815004280602128e-17)
(-0.028627206785509167 0.06657086147579705 1.003274460138559e-17)
(-0.050822488439383334 0.07941019491207893 1.2276220580331608e-17)
(-0.07400166219051746 0.08373129413414959 1.263732470737578e-17)
(-0.09654232753836868 0.080240016747841 6.80813307810372e-18)
(-0.116711728554413 0.07003073488933748 -6.960810648561051e-19)
(-0.13314789345582437 0.0544250873301225 -4.577173040436376e-18)
(-0.144914902386726 0.03482197380499359 -7.680609858237224e-18)
(-0.15135872523065344 0.012656548276773597 -9.990042048698508e-18)
(-0.15208184311280637 -0.010586905881086427 -9.420820295806214e-18)
(-0.14694684363423374 -0.033344569123884206 -7.147798858851246e-18)
(-0.13610245003561436 -0.0539506155868877 -1.4249274000407826e-17)
(-0.1200313495463037 -0.07065219517884615 -1.717327884407073e-17)
(-0.09962824837676883 -0.08168089024147723 -1.7927827844366735e-17)
(-0.07636762378606754 -0.08541141038871465 -1.8516761509943354e-17)
(-0.05220908484666571 -0.0806455412568053 -1.717019276313244e-17)
(-0.029117934922482738 -0.06687908814333016 -1.3668486991025698e-17)
(-0.010879005147186148 -0.04444663537703836 -9.905702647005078e-18)
(-0.0030480897852932765 -0.01555748610057007 -3.8408501774218694e-18)
(-0.0037746995238097116 0.022597539834892523 1.934241727623437e-18)
(-0.012725888274928146 0.06046520734241689 5.736822917905265e-18)
(-0.03319990967568274 0.08780498722893704 8.77140496455259e-18)
(-0.05845960200967537 0.10343767200706701 1.1196638738663443e-17)
(-0.08441747280454938 0.10800747345363158 1.1168353530599448e-17)
(-0.1093180555043303 0.10274924785392112 7.882065461681437e-18)
(-0.13136128268225206 0.08924163910101494 2.9150367167363673e-18)
(-0.14921356538561523 0.06921857649966236 -1.0638103729988558e-18)
(-0.1620184854504556 0.04441106292274325 -3.9871071408615476e-18)
(-0.16918500788397392 0.01652363555275672 -5.717759958329733e-18)
(-0.1703295097158922 -0.01272068404264059 -5.971178387407664e-18)
(-0.16526403887355132 -0.0415110802610373 -5.894662319745775e-18)
(-0.1540236162723987 -0.06788504352302219 -7.807572923605315e-18)
(-0.13693674874225492 -0.08970732918633276 -7.512654526977721e-18)
(-0.11475364798178378 -0.10472043988183144 -3.2579258908919227e-18)
(-0.08890739999845415 -0.1107127317442706 -8.032507404863011e-18)
(-0.06147068187982574 -0.10586225194681043 -7.690971056593441e-18)
(-0.034655017743340635 -0.08909721441907405 -2.4461730521206446e-18)
(-0.013080909674979088 -0.060331157777870285 -3.822357987991376e-18)
(-0.0037182476841852016 -0.02177300564042313 -1.640980233708063e-18)
(-0.004430550471738833 0.02984634312626813 1.2450977393639438e-18)
(-0.014724243406143157 0.07818612448058596 1.9285036223566913e-18)
(-0.03802749329587701 0.11191380846297633 9.068992645860113e-18)
(-0.06625751382934046 0.13028578256332451 1.2992780484318903e-17)
(-0.09467505883247883 0.13471434068115143 1.3630949933192409e-17)
(-0.12145967431560371 0.127182216837929 1.1251750235102165e-17)
(-0.1448376797450371 0.10989703224974229 6.099836101103371e-18)
(-0.16360751326317205 0.0850761162739121 1.8122992852216468e-18)
(-0.17708751253503155 0.05478793253581906 -1.188602863854619e-18)
(-0.18482125253913842 0.02096334969741935 -2.7630180821084243e-18)
(-0.18647882902452748 -0.014508604227279811 -2.81957402804765e-18)
(-0.18182363683105607 -0.0496529160763511 -2.262155737589489e-18)
(-0.17073483785513152 -0.08228048980574384 -3.429861638858589e-18)
(-0.15329808014460355 -0.10990418867868658 -2.3910130731750334e-18)
(-0.12999037060705262 -0.1297382307456626 2.2443418509353215e-18)
(-0.10206115736002128 -0.1388504176033838 -2.9951134715549087e-18)
(-0.07157256977735418 -0.13456460333217374 -2.939685940125834e-18)
(-0.04091067342439229 -0.1149414166869528 2.311527214692533e-18)
(-0.01565351993072087 -0.079148699086836 -1.1187862194295853e-18)
(-0.0045366907591909795 -0.02923448610341663 -7.521470447782418e-19)
(-0.0052166803834887724 0.03822961745191127 2.8424136042373174e-18)
(-0.016968983969333884 0.09838792080880836 1.0584210581117732e-17)
(-0.04320430084596407 0.13888567857108566 1.2881627551932925e-17)
(-0.07418679283853238 0.15968426403215552 1.7304575118130057e-17)
(-0.1044868473114448 0.16335208740676793 1.8604743361295934e-17)
(-0.13234960100415663 0.15290537520948905 1.812398542214026e-17)
(-0.1561760056118313 0.13135071706132695 9.143224299002306e-18)
(-0.17504544843467537 0.10145723383969651 3.902959691219642e-18)
(-0.18858153877352093 0.06561546349313548 4.846100092674131e-19)
(-0.19655996780706703 0.025908750728910277 -1.1842176152006141e-18)
(-0.19876452214385903 -0.015718651122654945 -2.340938663591554e-19)
(-0.19492727498146603 -0.057255675740464855 3.436899818905259e-18)
(-0.18473649565923028 -0.09640869345244844 -8.170529211127612e-19)
(-0.16793622492324298 -0.13042230496413654 -1.0943681398748372e-18)
(-0.14456362980717272 -0.155984398970134 5.775396787878342e-19)
(-0.11547388776254759 -0.1693145014509064 -3.3378698555806057e-18)
(-0.0825020129119779 -0.16660185316991374 -3.919060485626846e-18)
(-0.04803671862761904 -0.14462293011502342 -1.584994997430104e-18)
(-0.018727284701102374 -0.10129244543673707 -2.608552370315624e-18)
(-0.0055800167658193334 -0.03818030079959512 -1.3557421309409377e-18)
(-0.0062292511415727655 0.047923990209731974 2.8751949148425404e-18)
(-0.01959526275675366 0.12126376315425011 8.457078922616479e-18)
(-0.0488502880184816 0.16860526785026808 1.410674719668535e-17)
(-0.08213561186283942 0.1910956545189634 1.800997099695034e-17)
(-0.11332875999997494 0.19304098930806066 1.8993221433559857e-17)
(-0.1409772339816149 0.17885852532567034 1.601053223499016e-17)
(-0.16387933703674704 0.15254217638773546 9.233796074923815e-18)
(-0.18159676654173385 0.11746422432755309 4.6839225822095276e-18)
(-0.19422324441921532 0.07628807038135473 7.320851079397671e-19)
(-0.20188613636195774 0.031137175502387024 -2.0340732133075896e-18)
(-0.20456227375156938 -0.016141601900784182 -8.590770533309044e-19)
(-0.20199116085735366 -0.06367920896864424 1.7868487888563793e-19)
(-0.1936562656542614 -0.10926293676812328 -1.2006237936103834e-18)
(-0.17886972592995892 -0.15002964483029216 -1.3410868861663224e-18)
(-0.1570370505383585 -0.18222055252209207 4.7225730201664994e-18)
(-0.12833400976756051 -0.20112417210687897 -6.7690030091875826e-18)
(-0.09402223173506868 -0.20148363565552158 -7.486963031422752e-18)
(-0.056144887015009144 -0.1782327739353342 -7.214073569304938e-19)
(-0.0224669437702153 -0.12723371620204665 -6.721767918181519e-18)
(-0.006967379764012031 -0.048943080279280585 -3.948051644447644e-18)
(-0.007666937881402206 0.05922918761459834 4.092617098495918e-18)
(-0.022849784981733946 0.1470740135043436 1.161746364140744e-17)
(-0.055136810317424005 0.20077928779020848 1.7245230467616116e-17)
(-0.0898581957476461 0.22357161330797065 1.8673910281485313e-17)
(-0.12031819471872514 0.2223627175731014 2.1259825329060825e-17)
(-0.14577976780015 0.20341554018393251 1.723577570419396e-17)
(-0.16575268986115899 0.17188920521076534 7.292383072084004e-18)
(-0.1805315844951659 0.13176419813483758 5.175631602263804e-18)
(-0.19086466021798928 0.08587443413993011 3.276694035181588e-19)
(-0.1973549954665732 0.036226590541085596 -6.1932691815188654e-18)
(-0.20026033413626226 -0.015620956612254138 -1.1969118993372013e-18)
(-0.1993893042273665 -0.0681632119761754 1.7671752642294414e-19)
(-0.1940462966346615 -0.11951843872881228 -1.89072365436679e-18)
(-0.18306428088441307 -0.1669732265496639 -8.897201680139797e-18)
(-0.16503954916276145 -0.2065276145151519 -6.451733561875428e-18)
(-0.13913201612930717 -0.2325719765750233 -1.7724250076184205e-17)
(-0.10553051276190305 -0.23811844012649686 -1.348345605484039e-17)
(-0.06529246751015787 -0.2155558195555825 -1.0338842011420555e-17)
(-0.027130692554139402 -0.15747223197478058 -1.765834183349199e-17)
(-0.00892556084898905 -0.061983035592815316 -1.2022129191405643e-17)
(-0.009938043982553732 0.0726678594812046 5.950845544000433e-18)
(-0.027175853016237202 0.17613984171557576 1.690800208427314e-17)
(-0.06226865373292962 0.2347813385106279 2.3442076272417745e-17)
(-0.09680830329081233 0.2555411112154926 2.889496638356005e-17)
(-0.12394874120383167 0.24916076950510604 2.8539466828907604e-17)
(-0.1443514735359698 0.22423275744134205 2.3983071649958844e-17)
(-0.15864127283505702 0.18719127601693483 1.4773815502437875e-17)
(-0.16811741045884646 0.1425313920434326 8.36400445244128e-18)
(-0.1743468446808892 0.09307479647459121 3.5899731170840046e-18)
(-0.1784984556272102 0.04050758627084284 9.885636131405062e-19)
(-0.18118069906584058 -0.014114938576107381 2.57901757748889e-18)
(-0.18234730959685286 -0.0698941006474692 4.0804112060310315e-18)
(-0.18120600456874875 -0.12557348669688068 1.6761335260067964e-18)
(-0.17615610341027202 -0.17894641459860447 -1.6833671576151235e-18)
(-0.16489943624042702 -0.22615485817313002 -3.912632043557776e-18)
(-0.14526990397535466 -0.26095065504403936 -7.82938919785259e-18)
(-0.11575528443687967 -0.2744761812071891 -8.019352582563604e-18)
(-0.07536718897191451 -0.2557904313812625 -7.055108231435587e-18)
(-0.033129628809004746 -0.19247195580511378 -7.458714672121609e-18)
(-0.011916186661405578 -0.07797907536761851 -3.9512089386903156e-18)
(-0.013783394406361981 0.08927511890384247 7.479890208739094e-18)
(-0.03323720707311213 0.20878825773720786 1.9899020916173852e-17)
(-0.07025013979274848 0.2692363998482385 2.834468108889002e-17)
(-0.10168318408922679 0.2843539886949191 3.880770166419641e-17)
(-0.12155804457358216 0.27018942759629194 3.8727159613383266e-17)
(-0.13294373667219483 0.23803390210820968 3.0185161034455146e-17)
(-0.1380335593702846 0.19553361188009868 1.9294232368380987e-17)
(-0.1393594725161939 0.14742472780589783 9.984997262152651e-18)
(-0.13937380686386117 0.0962187387848936 5.046832472960863e-18)
(-0.13980171522891346 0.043037161630879985 4.464079300905013e-18)
(-0.14160791360833277 -0.011772255760875058 6.136071761116581e-18)
(-0.14495655454701964 -0.06812824089593399 1.3409476741471393e-17)
(-0.1491030602690277 -0.12567946309407735 6.458631406374728e-18)
(-0.1522068205055431 -0.1831400827008422 2.719399409352955e-18)
(-0.15119966426364562 -0.23737305711545037 -6.753469601760224e-20)
(-0.14245597485288022 -0.2821135170918705 -2.4348419224331247e-18)
(-0.1221461189631717 -0.3068948373557337 -3.3639417155727588e-18)
(-0.08573573511354321 -0.2968905649609631 -3.343103770924522e-18)
(-0.04103022236437892 -0.23255466305967248 -3.0292869657445795e-18)
(-0.016739502961697114 -0.0982342234020037 -1.3802760861473813e-18)
(-0.02028760479886737 0.11117660260464722 1.0324151893122693e-17)
(-0.04193930862580719 0.24504140955073442 1.9652154205895518e-17)
(-0.07830001525130842 0.30103989063136405 2.9518393773924176e-17)
(-0.10137765597945389 0.30534077491636796 4.178680534924416e-17)
(-0.10825107205745267 0.28053283121196415 4.529277817924737e-17)
(-0.10557186368613354 0.2403939034808412 3.847202642140379e-17)
(-0.09743293964772884 0.1933153192243392 2.2165169603971296e-17)
(-0.08765251881472919 0.1437287572640576 7.104036316151445e-18)
(-0.07941018129296076 0.09341318462259621 1.6906308521368306e-18)
(-0.07478411639700216 0.04267512085963692 4.694668143144059e-18)
(-0.07497390962601791 -0.008979642468905142 2.5716542611721004e-18)
(-0.08036594130104328 -0.062385764727079344 1.1705056731516131e-17)
(-0.09044836319726861 -0.11826199986596714 9.631507336998526e-18)
(-0.10351336577649574 -0.17659957829804837 6.079889292001335e-18)
(-0.1161871595232033 -0.23566770500862647 3.0401778313719976e-18)
(-0.12368960800523916 -0.29024602791444387 8.083613522273902e-19)
(-0.11971011363519105 -0.32930511171169813 -4.571635230485414e-19)
(-0.09457065679633993 -0.33441487855538743 -9.685163090896448e-19)
(-0.0516400083572232 -0.27711587829551537 -9.955169571955048e-19)
(-0.024572788365840568 -0.12506847517214603 -4.451262065765255e-19)
(-0.0306557192676193 0.14083623753870306 6.288775741733811e-18)
(-0.053975274804547814 0.2831926351154898 1.7077650061321094e-17)
(-0.08326352250383438 0.3249425889509033 2.806445808360346e-17)
(-0.08876986933793989 0.31235833391749346 4.0476380040390854e-17)
(-0.07487206971893932 0.27457240714122144 4.648406971293328e-17)
(-0.052551815948592685 0.22689049349768037 4.05097896989838e-17)
(-0.027516389027705392 0.17741153258666936 2.4579273215046006e-17)
(-0.00445959124277035 0.12937835334010844 1.2416769732919825e-17)
(0.013255600915033267 0.0833455014086483 7.020414741573704e-18)
(0.023673542396363916 0.03861610307814793 7.348201128737653e-18)
(0.02565566630926212 -0.00614618739680581 1.0382141991446798e-17)
(0.018676381139655626 -0.052601000668456944 1.7771346439229678e-17)
(0.0028468894835433863 -0.10247824191427699 1.3306272976751681e-17)
(-0.020752408765453312 -0.15718043366216158 8.59227125323237e-18)
(-0.049295338952762446 -0.2169638914980947 5.083736818746002e-18)
(-0.07789064839703433 -0.27908403134376314 2.671170343023119e-18)
(-0.09873082822981265 -0.333959705446346 1.1614942166555254e-18)
(-0.0964346816455719 -0.3608520809614731 3.2889609302113848e-19)
(-0.06476637434337155 -0.3224398581190699 -3.896011950690684e-20)
(-0.03675546832565705 -0.16030537694422448 -6.333477415410498e-20)
(-0.04262314582189656 0.18132292559470872 3.1461343941945017e-18)
(-0.06406142591262569 0.3172508130078698 1.2172426584824175e-17)
(-0.07332623944072504 0.33145089080474455 2.4176710224734137e-17)
(-0.048288663566858 0.2975656069320745 3.669382904643182e-17)
(-0.005466657158800596 0.2465110026577871 4.170382655414449e-17)
(0.04075984926034718 0.19379743248080672 4.0205041736958805e-17)
(0.0841836210393872 0.14589482308197638 2.444697315115466e-17)
(0.12036799470190189 0.10359398096609984 1.168196410806775e-17)
(0.14682144177799608 0.06574276309151282 6.951916043956954e-18)
(0.16243177146190943 0.0306381273226884 6.362604415193724e-18)
(0.16654792780080543 -0.003682502132496833 9.284247135232735e-18)
(0.15868264009255117 -0.039359824129992116 2.2356248538141536e-17)
(0.13846596288340718 -0.07874103244502202 1.4559174777730906e-17)
(0.1059001839526006 -0.12433978763294957 9.393619285422604e-18)
(0.0621358464194447 -0.17853266341585441 5.876554508600154e-18)
(0.010525682369574607 -0.24240958592993406 3.4643430818164087e-18)
(-0.04152750659252193 -0.3105349089072591 1.882429644624658e-18)
(-0.07565204029130776 -0.3630901926348716 9.161315199298203e-19)
(-0.07204160473801852 -0.3607585703611532 3.7415267583383285e-19)
(-0.04918096853182208 -0.2084945698851259 9.26116147168726e-20)
(-0.035455232273852375 0.24755269168130006 -4.038499906914954e-18)
(-0.051639962312120015 0.33441012722909375 6.7100006857993716e-18)
(-0.01780061485187407 0.29409570150377706 1.813339812901362e-17)
(0.05153528529569537 0.239525530831167 2.97084036902698e-17)
(0.12618519270863218 0.18321297565959235 3.794827770778662e-17)
(0.19498696457439865 0.13433717558644667 3.66591314212996e-17)
(0.2530318888514853 0.09593330247466791 2.095172145232218e-17)
(0.297684347873962 0.06556281071553965 2.426549509688405e-18)
(0.32877815087081863 0.04041422457335925 3.1948393482851183e-18)
(0.3468421748643837 0.018289592242939936 2.3400393009362983e-18)
(0.3521045331044409 -0.002750804318010832 -2.1309755699173187e-18)
(0.34432141052926835 -0.02461365291158801 1.1175430973399305e-17)
(0.3227112967553559 -0.04944140177292214 1.1481936419232682e-17)
(0.28596519380425184 -0.07990500747761947 8.397535306323997e-18)
(0.23248635133118528 -0.11962114817008611 5.510635959621097e-18)
(0.1624675021273038 -0.17330330608363706 3.3855335987466634e-18)
(0.0808587262710491 -0.2418276070851511 1.9442926699218226e-18)
(-0.0014469312017351178 -0.3153723756684567 1.0266191373460215e-18)
(-0.0521400123784814 -0.375199132857758 4.728417813026437e-19)
(-0.036024052809750705 -0.28451254694469913 1.338837934811227e-19)
(0.044149912264598815 0.29484867616753824 -1.2897421378124184e-18)
(0.021787504081677667 0.3009442627713897 -3.451980727077145e-18)
(0.13839592524551012 0.20097726257306567 1.0091170785588339e-17)
(0.26709979977974835 0.13858589861720078 2.118872403415403e-17)
(0.3636578870365392 0.09370544186651944 3.005504799290987e-17)
(0.4390812940379424 0.06157567682453954 2.968929378722046e-17)
(0.49662414362263696 0.040488503553383313 1.7742402107338443e-17)
(0.5373090835525898 0.02613372237814954 7.38480523073995e-18)
(0.5640483796662998 0.01536347161152477 3.624991247850085e-18)
(0.5791213935490246 0.006435281204085143 2.7575065226997257e-18)
(0.5835233988433858 -0.0018210757293992258 4.758942745918912e-18)
(0.5773045339131231 -0.010413272150788726 1.7198523134366157e-17)
(0.5596208202215581 -0.020504981007182607 1.1226212162712828e-17)
(0.5283912845209509 -0.03381269778827307 6.8289871495132186e-18)
(0.47954459258747417 -0.05336808436214885 4.203392750868508e-18)
(0.4093333189100427 -0.0847586264134013 2.5536757334926823e-18)
(0.3150054117484057 -0.13471144687052972 1.4823925342445597e-18)
(0.17770780033711053 -0.20876357417564 7.9657483504287685e-19)
(0.033881751860315786 -0.31748922376266697 3.7120369957498152e-19)
(0.057023909932430145 -0.31699632809127615 1.0714836055381704e-19)
(0.35017348001699056 0.05475528957018653 -1.1869421514138983e-18)
(0.3809347970813902 0.15578980931104036 -6.975457986297155e-18)
(0.5431594113118063 0.12752550637400212 2.3132748268878703e-18)
(0.6810215880093445 0.08631787204270293 1.094341077561539e-17)
(0.7515483336863004 0.05200293041002962 1.3552344691698108e-17)
(0.792953539302061 0.030797758393636344 1.3477807676329307e-17)
(0.820262163534118 0.019424567166159118 8.35581245683203e-18)
(0.8374472120080186 0.013181727213936914 3.778255188592085e-18)
(0.8478057383010342 0.009395092395438162 1.7644613229777097e-18)
(0.8532319121185808 0.0067109393461603625 1.42395203008787e-18)
(0.8543596814522411 0.0043894169431932355 3.1986373103987542e-18)
(0.8512274350663663 0.001959999530228182 1.1473858728848588e-17)
(0.8434115358732955 -0.0010848988900587964 6.074586054622542e-18)
(0.8296763245821067 -0.00569404013476089 3.017556650416614e-18)
(0.8068978776774716 -0.013700889200663613 1.6639622982928868e-18)
(0.7707425953899366 -0.0291404547796471 9.772528488854506e-19)
(0.7118850614355668 -0.060033014782062064 5.660966864392468e-19)
(0.5838592177638949 -0.10637817990287829 3.0578097799376996e-19)
(0.39831532304934913 -0.14527291663781142 1.4289731139866242e-19)
(0.39492142335769814 -0.06830291675912908 4.2141615901458916e-20)
)
;

boundaryField
{
    movingWall
    {
        type            fixedValue;
        value           uniform (1.0 0.0 0.0);
    }
    fixedWalls
    {
        type            noSlip;
    }
    frontAndBack
    {
        type            empty;
    }
}

// ************************************************************************* //
