/*--------------------------------*- C++ -*----------------------------------*\
| =========                 |                                                 |
| \      /  F ield         | OpenFOAM: The Open Source CFD Toolbox           |
|  \    /   O peration     | Version:  5.x                                   |
|   \  /    A nd           | Web:      www.OpenFOAM.org                      |
|    \/     M anipulation  |                                                 |
\*---------------------------------------------------------------------------*/
FoamFile
{
    version     2.0;
    format      ascii;
    class       volVectorField;
    location    "10.000000000000014";
    object      U;
}
// * * * * * * * * * * * * * * * * * * * * * * * * * * * * * * * * * * * * * //

dimensions      [0 1 -1 0 0 0 0];

internalField   nonuniform List<vector> 
400
(
(0.0002908851982255352 0.002790072882280952 6.890209857710617e-20)
(0.0004618301495357492 0.005149990837756343 3.5855905956206784e-19)
(-0.0008303253725680155 0.006328804427765119 3.8947745910814788e-19)
(-0.0032797949485909457 0.006957286665209356 5.891123576151132e-19)
(-0.006301407497554493 0.007230166478073976 1.941671846389637e-19)
(-0.009487176829641402 0.007243879054319694 -7.448058685228554e-19)
(-0.012490324736885617 0.007057858301230546 -1.10235240822274e-18)
(-0.015016410423546176 0.006720239305589408 -7.93951378473861e-19)
(-0.016841659971361788 0.006273033162012632 -6.416793435311916e-19)
(-0.017810399043008792 0.0057553532676469865 -1.3645605180394671e-18)
(-0.017835554362997594 0.005207248136187345 -1.8884603259518794e-18)
(-0.016903797782438376 0.00467265115801726 -2.5913300130411498e-18)
(-0.0150818092779365 0.004200617240697188 -3.460219474180518e-18)
(-0.012522281821291947 0.003845441113834013 -4.125102353544412e-18)
(-0.009469765104335082 0.0036675687229068953 -4.8140529810098295e-18)
(-0.00626210914418902 0.003722013772089031 -4.899602995161391e-18)
(-0.0033044630810061463 0.004025298305146853 -4.571934523614408e-18)
(-0.0010401924787050338 0.004506658878259747 -4.333978949689895e-18)
(0.00017616912153317588 0.004855153308224338 -2.711710417267903e-18)
(0.0005552092403565339 0.003606328178243138 -1.0618311483532503e-18)
(0.0003384497824790599 -0.0006714790597253107 1.2249926651599275e-19)
(-0.0014704227295115476 0.0012969590942776231 1.627811877822155e-18)
(-0.005595247276989382 0.003342038666248873 8.452371518901398e-19)
(-0.01168027192062933 0.0047088603934925845 1.2556570426342131e-18)
(-0.018913830916497256 0.0053728980120277235 7.037021346401466e-19)
(-0.026482576505670267 0.005357589820555517 -2.2117946405768588e-18)
(-0.033597545932649346 0.004745189014815621 -3.8623445113622884e-18)
(-0.039574592135491124 0.0036552755176116423 -2.3070086665025453e-18)
(-0.043883992764147096 0.0022119521255105972 -1.02133362225241e-18)
(-0.04615557498927484 0.0005427613592879955 -4.176625954971623e-18)
(-0.04618732222609168 -0.0012174021799397567 -5.434425660317742e-18)
(-0.0439576599178602 -0.0029249169307895115 -7.562916660528659e-18)
(-0.03963569463136345 -0.004426056509753874 -1.0521409807620828e-17)
(-0.03358472069475832 -0.005560446531351043 -1.2686980293287571e-17)
(-0.026359589923072052 -0.006169205468091945 -1.3408914221878923e-17)
(-0.01869855690705462 -0.006109995599690943 -1.4712863042155752e-17)
(-0.011431994078453266 -0.0053129737388975815 -1.3714343605661455e-17)
(-0.005338166892215395 -0.0038099441978746364 -1.0481119102221932e-17)
(-0.0014267675676355384 -0.0017149556809438176 -8.2610361336988e-18)
(-0.000484000680714359 2.8058219894581173e-05 -3.683934562214267e-18)
(-0.0009163763903910222 0.0004801216091861221 1.9002629183538494e-18)
(-0.003811987708604376 0.0051171171951155565 4.671454522252237e-18)
(-0.010670753382040142 0.009779476698398647 2.2422684594710415e-18)
(-0.020127561210995095 0.012952219815374016 3.3123976918568114e-18)
(-0.03088115491578093 0.014469044816727184 2.8096737547816552e-18)
(-0.04193949986795174 0.014331693998864196 -8.48858280643107e-19)
(-0.05223747599579357 0.012705512510919933 -3.642730617480346e-18)
(-0.0608385581021026 0.009864749665931535 -4.678652298914862e-18)
(-0.06701967144888382 0.006117650618014937 -5.651621383024161e-18)
(-0.07027220347907845 0.0017929443666751597 -8.651120133056606e-18)
(-0.07031904696028214 -0.00275980752642054 -1.0282631017229401e-17)
(-0.06713145877099605 -0.007169461246068381 -1.1428295344866769e-17)
(-0.060941132530537866 -0.011046615045557427 -1.467082117983439e-17)
(-0.0522415781074712 -0.013996820141106358 -1.7988788747161475e-17)
(-0.041779232549839763 -0.015645726165176774 -2.0049026600093052e-17)
(-0.03054690622125191 -0.015684223563349024 -2.0845369853814775e-17)
(-0.019663556048309744 -0.013966194666987078 -1.9283056863231816e-17)
(-0.010129304094507954 -0.010588480819373433 -1.597770771600923e-17)
(-0.0033088723541589665 -0.005899162053598187 -1.1704058279848743e-17)
(-0.0006990011294643236 -0.001134681637471501 -4.516542088530751e-18)
(-0.001600022993659731 0.003320380401950893 4.7843649733460285e-18)
(-0.0056505133466139374 0.012300974241124444 7.870465153434036e-18)
(-0.015324649845595457 0.020266551680267277 2.164243351813513e-18)
(-0.02810002749168612 0.025591145455868648 3.284275364815684e-18)
(-0.04215113135707533 0.027994819658250677 2.3752797611493986e-18)
(-0.056352281139127575 0.027500125229230284 -1.3367306151717677e-18)
(-0.06942975985365073 0.024397483047604973 -4.980470912360644e-18)
(-0.08027397237970622 0.01915377010166633 -6.652576044970818e-18)
(-0.08804166915016297 0.01230773242885404 -7.757786119218366e-18)
(-0.09213768584815399 0.004441261393826015 -1.400093946444344e-17)
(-0.09223442175102692 -0.003826430068996594 -1.5517687240737672e-17)
(-0.08829131404768441 -0.011839716851544226 -1.3227738878458675e-17)
(-0.08056875777223627 -0.018914328072372998 -1.9260542335554196e-17)
(-0.06963243097335417 -0.02436282953740764 -2.5693319222183706e-17)
(-0.05634926880838853 -0.027539779835857613 -2.9343073214100034e-17)
(-0.04189950415139857 -0.027920598000940343 -2.939239883687704e-17)
(-0.027646906941739078 -0.025243595022702743 -2.789854025369388e-17)
(-0.014825149766947062 -0.019625814861255978 -2.403266559012964e-17)
(-0.005275742818146164 -0.011609780037504748 -1.8254543210595127e-17)
(-0.0013083157180688316 -0.0029626791506233274 -7.713599323868941e-18)
(-0.002118125954619568 0.006713149124290776 5.410688167382177e-18)
(-0.007412843217478313 0.020955291143873317 9.84842859961026e-18)
(-0.019810364571908014 0.03272162663473764 5.212193571760452e-18)
(-0.03577613367378256 0.040342294710782635 6.413386619512462e-18)
(-0.052967068269457115 0.043512121805491244 5.578260869504541e-18)
(-0.0700967986160482 0.0423564206232424 -1.3464423066794174e-18)
(-0.08571119306031798 0.037344918961328605 -6.57417036029074e-18)
(-0.09857541518734984 0.02917257062703879 -6.5457171874586285e-18)
(-0.10777335736454544 0.018635943467038014 -8.224153890680843e-18)
(-0.11265879481661574 0.00659230564154008 -1.3724028348855928e-17)
(-0.11286869553725558 -0.006048894476709391 -1.5780119208780854e-17)
(-0.10834160808057691 -0.018327525910579383 -1.5964693572653577e-17)
(-0.0993350793977495 -0.029241044610571167 -2.5198641921367117e-17)
(-0.08643866704895849 -0.03777580133917957 -3.1352833972927693e-17)
(-0.0705855014781187 -0.0429697792018432 -3.472248938034383e-17)
(-0.05309875600812257 -0.04402190695901826 -3.2546225280990907e-17)
(-0.03555887366831593 -0.040476681425379774 -3.1424987042975033e-17)
(-0.01942419831725137 -0.03237192338917967 -2.806673862860513e-17)
(-0.007113964399228848 -0.02029330368121544 -2.1830994484358578e-17)
(-0.0019327209543641168 -0.006236117368351361 -9.454400370508023e-18)
(-0.0026600095174456107 0.011062184016001593 4.2098899668831875e-18)
(-0.009150844693605012 0.031880301851756034 1.2990661603373764e-17)
(-0.024208388654965027 0.04816901055064193 1.056839877412272e-17)
(-0.043301030651065414 0.05830795751512795 1.1698941065620996e-17)
(-0.06353340986734472 0.06213268959804447 1.3156394292101847e-17)
(-0.08344690340178869 0.05999004186718477 6.700462336822719e-18)
(-0.10143166201621785 0.05261128888909264 -1.6793118533665865e-18)
(-0.1161661419448186 0.04097343596046765 -4.179846675792969e-18)
(-0.12670097393131186 0.02616112896334309 -7.77290303940004e-18)
(-0.13236860925309127 0.009320791957642845 -1.3062100357913666e-17)
(-0.13278165289993704 -0.00834306667126818 -1.3099287048600765e-17)
(-0.1278461471462739 -0.025559913394484428 -1.4418043933224812e-17)
(-0.11778355860482605 -0.040993135453320825 -2.5681374517725335e-17)
(-0.10315859047656614 -0.053270190328635884 -3.1709308612858895e-17)
(-0.08491792551879282 -0.06105566899678883 -3.13029728011261e-17)
(-0.06448779995210355 -0.06318815445640925 -2.7669602338032967e-17)
(-0.04365152855013741 -0.058911071311405716 -2.908289490629237e-17)
(-0.02411235537580437 -0.048070510166786644 -2.5689398932164076e-17)
(-0.008928963680260195 -0.03120137821334777 -2.2160564978704653e-17)
(-0.002472682570377586 -0.01042731138799856 -8.002325767926798e-18)
(-0.003199279453189266 0.016364102986727972 3.2164430128990343e-18)
(-0.010892023473947089 0.04507058643090417 1.0757923526188394e-17)
(-0.02862707523383446 0.06657101349516954 1.0898754245415592e-17)
(-0.05082235297672444 0.07941039382700207 1.45136440518065e-17)
(-0.07400154385836463 0.0837315303726251 1.5720165705262974e-17)
(-0.09654224309447018 0.08024027692588838 1.333816125339295e-17)
(-0.11671169023413144 0.07003100425201787 6.011292723095274e-18)
(-0.1331479092286913 0.054425350340938455 -2.07840029841499e-21)
(-0.14491497674958076 0.03482221571829027 -4.354606891676282e-18)
(-0.15135885430099755 0.012656755841216774 -7.724751388972188e-18)
(-0.15208201978350422 -0.010586739832150149 -8.969390940499999e-18)
(-0.14694705815315925 -0.03334444871152192 -5.933638105761885e-18)
(-0.1361026896665074 -0.05395054123609735 -1.3387223093754852e-17)
(-0.1200315969756304 -0.0706521625059384 -1.778143349081902e-17)
(-0.09962849000569965 -0.08168089093908325 -1.7844423853061475e-17)
(-0.07636784721721386 -0.08541143368655622 -1.7033573344441493e-17)
(-0.0522092777475041 -0.08064557693670261 -1.701124666727021e-17)
(-0.02911808534897551 -0.06687912423605544 -1.551118334440849e-17)
(-0.010879098623422213 -0.044446660566638055 -1.1552082561786568e-17)
(-0.0030481457389795316 -0.015557492026920559 -4.308954837988004e-18)
(-0.0037746210706068183 0.02259758544079106 1.5930118883218434e-18)
(-0.01272577056851666 0.06046531183339306 2.061590546984557e-18)
(-0.03319974880350318 0.0878051439071408 9.235397382716613e-18)
(-0.05845943083346462 0.10343787233554459 1.2872732085750711e-17)
(-0.08441731753207696 0.10800770697165472 1.5107951041324214e-17)
(-0.10931793342966065 0.102749497639858 1.447006852906826e-17)
(-0.13136120906845694 0.08924189153674027 9.011406337150167e-18)
(-0.149213551197146 0.06921881343454071 3.4216325159558842e-18)
(-0.1620185351069251 0.04441127034229518 -9.403788041270422e-19)
(-0.16918511947259626 0.016523803893617798 -3.831723998020729e-18)
(-0.17032967513527186 -0.012720563084334143 -4.902378277145576e-18)
(-0.165264249641407 -0.0415110093576662 -4.490483486825941e-18)
(-0.15402385727430984 -0.06788501934150898 -6.671468565353322e-18)
(-0.13693700358485286 -0.08970734430385488 -7.410317589429794e-18)
(-0.11475390015852222 -0.10472048549845482 -1.0151001732234774e-18)
(-0.08890763610175484 -0.11071279398746077 -4.008747146858402e-18)
(-0.06147089000196037 -0.10586231925024273 -5.374726925666771e-18)
(-0.034655181466571754 -0.08909727379754312 -8.440595212260257e-19)
(-0.0130810132067847 -0.060331197291864855 -2.8574674162315943e-18)
(-0.0037183102752201113 -0.021773017215163247 -1.48416091375368e-18)
(-0.004430462404740401 0.029846385748862725 2.064527054340294e-18)
(-0.014724109082783713 0.07818622682219253 4.328174744938587e-18)
(-0.03802730645246272 0.1119139603464707 1.1449364804124915e-17)
(-0.06625731066589646 0.13028597409292272 1.6872812811888466e-17)
(-0.09467486714514178 0.13471455659139647 2.162509567996729e-17)
(-0.12145951413298219 0.12718244265222942 2.0864266167128397e-17)
(-0.14483756775452494 0.10989724977776984 1.2969004991451966e-17)
(-0.1636074636801313 0.08507631137089763 6.571072575544168e-18)
(-0.17708752934749128 0.0547880914397389 1.906894761242254e-18)
(-0.18482133524789054 0.020963463083125355 -1.0534283126979755e-18)
(-0.18647897295695906 -0.014508540722859158 -2.073482370953492e-18)
(-0.18182383035988106 -0.04965290280465148 -1.1705029642186378e-18)
(-0.1707350668399304 -0.08228052187271519 -1.3679841758195762e-18)
(-0.15329832775480454 -0.10990425719130989 -1.1667573830414844e-18)
(-0.12999062020519012 -0.12973832218305228 6.1528698710717736e-18)
(-0.10206139474848903 -0.13885052025633354 2.5229708171210583e-18)
(-0.07157278187782508 -0.13456470154791075 7.820952118239586e-19)
(-0.04091084341007093 -0.1149414985635071 6.347053690679699e-18)
(-0.015653628906833753 -0.0791487521465132 1.3058668042923923e-18)
(-0.004536757627232841 -0.029234503046400146 -1.7142986374285723e-19)
(-0.005216585170790637 0.03822965301242114 3.7698140742147465e-18)
(-0.016968837974248828 0.09838801312297865 1.3259606371889478e-17)
(-0.04320409375168745 0.1388858155920981 1.615409165542608e-17)
(-0.07418656279788592 0.15968443434981472 2.2375976914561174e-17)
(-0.10448662358639521 0.16335227353819462 2.4641106470921753e-17)
(-0.13234940485944297 0.15290556248441922 2.6661474288465017e-17)
(-0.15617585594487748 0.13135088779299556 1.6614620353549663e-17)
(-0.17504535875266977 0.10145737421297783 9.085633781762599e-18)
(-0.18858151798829884 0.06561556346697889 3.982837429880005e-18)
(-0.19656001503928772 0.025908800598395558 4.349224631931984e-19)
(-0.19876463119691315 -0.01571865165383778 -1.0054044244679663e-18)
(-0.19492743897328785 -0.05725572333068554 5.335413650875128e-18)
(-0.18473669982911725 -0.09640878315396892 3.3464360429711728e-18)
(-0.1679364511838116 -0.13042242473862323 8.770280455870956e-19)
(-0.14456386309571995 -0.15598453571993223 2.055477600010555e-18)
(-0.115474114030457 -0.16931464093505538 2.964141102999428e-18)
(-0.08250221876712488 -0.16660198102538876 1.5807917788739341e-18)
(-0.04803688644196854 -0.14462303315835734 2.423837024422789e-18)
(-0.01872739424453251 -0.10129251197997383 -1.1780564767505273e-19)
(-0.00558008539809869 -0.038180323599323975 -6.3963148940979395e-19)
(-0.006229152901160947 0.04792401600723941 4.28752045417175e-18)
(-0.019595110415952396 0.12126383806661256 1.0146568220871217e-17)
(-0.048850068033827666 0.16860538228111518 1.9509894573822302e-17)
(-0.08213536224316914 0.1910957928799517 2.3301015363048022e-17)
(-0.11332851036417833 0.19304113623951633 2.4969359663874023e-17)
(-0.14097700624952791 0.17885866344542295 2.2609954159615096e-17)
(-0.1638791516431323 0.15254229213288684 1.46528464941305e-17)
(-0.18159663773613346 0.1174643039849193 1.0381659067197237e-17)
(-0.19422318211922984 0.07628810431872352 5.5026623736927786e-18)
(-0.20188614170805758 0.03113716172235463 6.796680361971006e-19)
(-0.20456234102802862 -0.016141664928682405 1.8835804903532846e-19)
(-0.20199128465405577 -0.06367931643610776 2.179103298933832e-18)
(-0.19365643296553184 -0.10926307792733923 -1.5408852345195258e-19)
(-0.17886991930999008 -0.15002980950893846 -2.121303976371549e-18)
(-0.1570372560631633 -0.18222072722442878 3.7046981594764374e-18)
(-0.1283342140635654 -0.20112434216516126 4.722071033881519e-18)
(-0.09402242200069685 -0.20148378758332386 -1.7247472780207336e-20)
(-0.0561450451642433 -0.17823289381973606 6.060153830919622e-18)
(-0.022467048902160086 -0.12723379439851923 -3.3829926568126005e-18)
(-0.006967446608518463 -0.04894310829098613 -2.885587277311071e-18)
(-0.007666842110247329 0.05922920193324004 6.351913762161481e-18)
(-0.022849632819207554 0.1470740677785859 1.9287853850517947e-17)
(-0.05513658611676666 0.2007793734151697 2.799038339342063e-17)
(-0.0898579355404834 0.22357171341975582 3.62637346248435e-17)
(-0.12031792809769014 0.22236281751650586 3.758166674937259e-17)
(-0.14577951621596885 0.20341562269328792 3.3322332359432386e-17)
(-0.1657524735884805 0.17188925927100157 1.8526389404787257e-17)
(-0.18053142090690796 0.13176421252589057 1.343536548589863e-17)
(-0.19086455668184346 0.08587440241810163 8.182040245674378e-18)
(-0.19735495508214135 0.03622651152976772 -1.966002011004446e-18)
(-0.20026035634913128 -0.015621079450710992 -1.678393562580235e-18)
(-0.19938938107908669 -0.0681633717893924 1.5511032734308317e-18)
(-0.19404641775016893 -0.11951862501909574 -5.8589098670565475e-18)
(-0.18306443292676297 -0.16697342709740293 -1.4596235526964683e-17)
(-0.16503971779653506 -0.20652781761087055 -1.4634577583329336e-18)
(-0.13913218997965066 -0.23257216763457667 -4.9481420833536234e-18)
(-0.10553067908074014 -0.23811860717797656 -1.623165301578126e-17)
(-0.06529260935260552 -0.21555594972761707 -7.97489366548861e-18)
(-0.027130788926906943 -0.15747231651706084 -1.680858518176329e-17)
(-0.00892562252131427 -0.061983067167527404 -1.2144249940165477e-17)
(-0.00993795370276208 0.07266786227656476 7.612971684524864e-18)
(-0.02717570767100278 0.17613987412658597 2.2579343158969515e-17)
(-0.06226843547352351 0.2347813925513678 3.3104413508864004e-17)
(-0.09680804418624048 0.2555411705739511 4.9892759026986663e-17)
(-0.1239484694067625 0.24916081818144378 5.4044576661927653e-17)
(-0.14435120940715618 0.2242327835322228 4.956460113335226e-17)
(-0.15864103576525934 0.18719126675618697 3.260715132059662e-17)
(-0.1681172175598093 0.14253134247482976 1.785332390336849e-17)
(-0.17434670567460714 0.09307470322056527 8.946804139727916e-18)
(-0.1784983736592916 0.04050744894235072 3.1727704765640926e-18)
(-0.18118067293680604 -0.01411511361261602 1.1035251647047458e-18)
(-0.18234733732916036 -0.06989430281780147 7.491556735090155e-18)
(-0.18120607633795874 -0.12557370654867278 1.7427364547784853e-18)
(-0.17615620774888546 -0.17894664045856445 -5.770854087513755e-18)
(-0.16489956186252297 -0.22615507674599622 -4.2674201516899205e-18)
(-0.14527004029379012 -0.26095085657957307 -8.523963048067036e-18)
(-0.11575542094301612 -0.27447635274514504 -1.1635834078793478e-17)
(-0.07536730875475907 -0.2557905638692022 -8.169301467480088e-18)
(-0.033129712558610434 -0.19247204106500898 -8.354831346358482e-18)
(-0.011916241672420912 -0.07797910816307012 -4.8653608557421735e-18)
(-0.01378331400716381 0.08927511033427718 9.195739036744424e-18)
(-0.03323707531862382 0.20878826737032186 2.4736974092330195e-17)
(-0.07024993735627728 0.26923642125333364 3.415116062093421e-17)
(-0.10168293951213216 0.284354006516134 4.5562007629610337e-17)
(-0.12155778051537589 0.2701894270043886 5.425142807552002e-17)
(-0.13294347330880557 0.23803387341118046 4.97610422243187e-17)
(-0.13803331443662412 0.1955335464072883 3.4754919793314134e-17)
(-0.13935926074667437 0.14742462167975307 1.835826043818941e-17)
(-0.13937364001462452 0.09621859212497276 7.835766690264255e-18)
(-0.1398015976130533 0.04303697897456252 4.216347770045461e-18)
(-0.14160784589456046 -0.01177246852141298 3.0747599573795535e-18)
(-0.14495653501520517 -0.0681284734553676 1.0252106529178318e-17)
(-0.14910308406645378 -0.12567970313351864 8.03300274153747e-18)
(-0.15220687660402643 -0.1831403191484199 1.4942022846599872e-18)
(-0.15119974473766296 -0.23737328004796712 -1.3559480627596764e-18)
(-0.14245607152974538 -0.2821137169749094 -4.097099498669325e-18)
(-0.12214622111981313 -0.30689500506865147 -5.612637125763865e-18)
(-0.08573582976658117 -0.2968906925217138 -4.969692106951405e-18)
(-0.04103029087972025 -0.2325547453215006 -4.187583123799362e-18)
(-0.01673954963336935 -0.09823425597640563 -1.935518400393191e-18)
(-0.02028753664197037 0.11117658316276215 1.1549035725878065e-17)
(-0.041939196136574035 0.2450413982880136 2.5306861118131792e-17)
(-0.07829983843511887 0.3010398811359291 3.4039279743090024e-17)
(-0.10137743682345922 0.30534075460004795 4.8847044212574276e-17)
(-0.1082508299292122 0.2805327874523507 5.55786651062031e-17)
(-0.10557161415537229 0.24039382746339644 5.0278546119108634e-17)
(-0.0974326998849318 0.19331520732860671 3.438037327349331e-17)
(-0.087652302837858 0.14372860725070286 1.471910048994582e-17)
(-0.07940999789303592 0.09341299957075609 6.1378998031981356e-18)
(-0.07478397262494771 0.04267490578327988 3.976314538322469e-18)
(-0.07497380959888733 -0.008979879141694194 3.694312564182415e-18)
(-0.0803658844173817 -0.06238601165872322 8.876461082255651e-18)
(-0.09044834354042704 -0.11826224635953482 7.995971194203594e-18)
(-0.10351337874487916 -0.17659981339400813 4.2962503336489446e-18)
(-0.11618719861088007 -0.23566792081692564 1.2585665385759226e-18)
(-0.12368966570464734 -0.29024621657990574 -1.0324994669757456e-18)
(-0.11971018254169452 -0.32930526720536213 -2.2807532092509808e-18)
(-0.09457072458464001 -0.334414995970886 -2.4186275413601187e-18)
(-0.051640060648036966 -0.27711595424647656 -1.9732073815353533e-18)
(-0.024572825763352443 -0.12506850662144425 -8.23487679818015e-19)
(-0.03065566510183311 0.14083621189856457 6.399094590216858e-18)
(-0.05397518533944842 0.28319260713359784 2.185192703344489e-17)
(-0.08326337867749052 0.32494255595483384 3.137737899794837e-17)
(-0.08876968543059997 0.31235828380560465 4.5551376519261326e-17)
(-0.07487186078763267 0.2745723305495354 5.038765164994237e-17)
(-0.05255159394708755 0.22689038410443338 4.7348034592300504e-17)
(-0.027516167763264262 0.17741138727107403 3.022680190920489e-17)
(-0.004459382981851915 0.1293781746541075 1.566189017367806e-17)
(0.013255785749592089 0.08334529345454786 9.385647964374652e-18)
(0.023673697349776267 0.03861587306686619 7.807305874016932e-18)
(0.025655787593594326 -0.00614643181487103 1.0471975858101405e-17)
(0.01867646633171169 -0.052601248132720546 1.9102124984062922e-17)
(0.002846940079842616 -0.10247848168547931 1.0419058608255998e-17)
(-0.0207523873740579 -0.1571806569658163 6.094342239883516e-18)
(-0.04929534328457772 -0.21696409000504907 2.9785130901758077e-18)
(-0.0778906731347345 -0.2790842007807734 8.228998931547114e-19)
(-0.09873086673302664 -0.33395984210903684 -4.095568986356142e-19)
(-0.09643472506328092 -0.3608521826926774 -8.590538208474416e-19)
(-0.06476641028317368 -0.32243992417908557 -7.923206361055391e-19)
(-0.03675549590618097 -0.1603054052840168 -3.2936219478504656e-19)
(-0.04262310851725915 0.18132289855632688 4.855191173848736e-18)
(-0.06406136199857512 0.31725077722677897 1.1673206764127711e-17)
(-0.07332613202521018 0.3314508440183153 2.5106659105548094e-17)
(-0.04828852114845268 0.2975655391022859 3.417210930788619e-17)
(-0.005466489496678174 0.24651090738563297 4.052403077593895e-17)
(0.040760032118907705 0.19379730601289014 3.916656533402405e-17)
(0.08418380912956629 0.14589466603909806 2.1578093093171973e-17)
(0.12036817879160375 0.10359379527346968 9.12987201552881e-18)
(0.14682161445147446 0.06574255497617551 5.314345408994128e-18)
(0.16243192490712563 0.03063790358785313 8.6904868626581e-18)
(0.16654805506073384 -0.0036827333723454 1.4064084158555977e-17)
(0.15868273947234846 -0.03936005330738294 2.3826987621149865e-17)
(0.13846603544278702 -0.07874125046400086 1.0934633837275058e-17)
(0.10590023004677807 -0.12433998557297027 6.675461866366175e-18)
(0.06213586793133489 -0.17853283662729807 3.6864211461340295e-18)
(0.010525682980466192 -0.2424097298337871 1.6875862918125197e-18)
(-0.04152752139624275 -0.3105350222416213 5.09582026754651e-19)
(-0.07565206227162471 -0.3630902743565172 -4.984972570667188e-20)
(-0.07204162592868432 -0.36075862310544565 -2.0144688760616066e-19)
(-0.04918098618528464 -0.2084945929174731 -1.0007313608855054e-19)
(-0.035455208543605184 0.24755266899851708 3.943665546742674e-19)
(-0.0516399223406851 0.3344100926063176 6.2277497293881966e-18)
(-0.017800544822836852 0.29409565374190677 1.8669421289138507e-17)
(0.05153538382653224 0.23952546192393986 2.889769734725174e-17)
(0.12618531307691816 0.18321288207425382 3.393889071654988e-17)
(0.19498710147818174 0.13433705607728733 2.8511744380400456e-17)
(0.2530320348072238 0.09593315719061847 8.880970640992595e-18)
(0.2976844966979578 0.06556264394078538 -6.5641177766193045e-18)
(0.32877829631536715 0.04041404121754595 -4.482696043578896e-18)
(0.3468423098063377 0.018289399037864248 7.77449218120189e-18)
(0.35210465200649577 -0.0027510001699906053 4.7018015028447826e-18)
(0.34432150886418406 -0.024613843324122118 1.4965208879705958e-17)
(0.32271137448203213 -0.0494415789471052 1.0035649032926821e-17)
(0.28596525101223474 -0.07990516624822683 5.930038597174908e-18)
(0.23248638709929262 -0.11962128342772954 3.357712427285908e-18)
(0.1624675191329687 -0.1733034161203272 1.7462722753976994e-18)
(0.08085872919258949 -0.24182769084341924 7.78407984072496e-19)
(-0.0014469370510223753 -0.3153724342683396 2.6302697620179335e-19)
(-0.05214002111671945 -0.3751991692886944 4.4656520698446894e-20)
(-0.03602406134962651 -0.28451256304453504 -4.265798252714078e-21)
(0.04414992318562905 0.2948486617556606 -3.1292056095260446e-18)
(0.021787523898671654 0.3009442381832257 -7.431417217667847e-18)
(0.13839596396798798 0.20097722649687524 1.0362846787471317e-17)
(0.267099857486817 0.13858584679214048 2.1675948525032488e-17)
(0.3636579631128913 0.09370537219313757 2.7823919249433014e-17)
(0.4390813837109562 0.061575588625417114 2.1796551646274923e-17)
(0.4966242432424144 0.0404883988870811 3.936988934976711e-18)
(0.5373091893676237 0.02613360367118429 6.308590077710806e-20)
(0.564048486719602 0.015363343625745506 1.1953857966931202e-18)
(0.5791214962540732 0.006435148798842835 6.594814072813275e-18)
(0.5835234903996868 -0.0018212074952681618 1.5270453712870608e-17)
(0.5773046127039486 -0.01041339773063598 2.152751830801932e-17)
(0.5596208855892154 -0.020505096229560506 5.8896077961810324e-18)
(0.5283913351807781 -0.03381279853531102 3.1285281772470696e-18)
(0.4795446283390574 -0.0533681689727675 2.000604050338204e-18)
(0.40933334042041386 -0.08475869352243401 1.1924356100184554e-18)
(0.3150054220984675 -0.13471149715016353 6.212608546173755e-19)
(0.17770780369790456 -0.20876360827950627 2.725741610552282e-19)
(0.03388175103687705 -0.31748924443181475 9.465929433734698e-20)
(0.057023907252942485 -0.31699633638420205 2.0531261868570545e-20)
(0.3501734839204877 0.05475528175458719 7.044193587863884e-19)
(0.38093480360558296 0.15578979468822796 -9.946423592544095e-18)
(0.5431594254238363 0.1275254823299771 -5.273524317257347e-19)
(0.6810216137150301 0.0863178379068474 1.7778032515717138e-17)
(0.7515483695218786 0.0520028852817761 2.412854155807986e-17)
(0.7929535841007935 0.030797701192984986 5.3747859708896274e-18)
(0.8202622139459812 0.01942450186832321 -4.302933666917447e-18)
(0.8374472654378814 0.013181653385963549 -1.4924087544959943e-18)
(0.8478057927450077 0.009395014345457307 5.6958475901695225e-19)
(0.8532319636707285 0.006710858557883605 3.721209500440429e-18)
(0.8543597279156177 0.004389337653060143 1.2800370146831763e-17)
(0.8512274740793885 0.001959925810718082 1.4274366148407912e-17)
(0.843411568086289 -0.0010849663676291246 -1.0886182009889946e-18)
(0.8296763501438481 -0.005694098400623282 -2.603640973735613e-19)
(0.8068978953697256 -0.013700937957656272 3.7126054312364104e-19)
(0.7707426063445476 -0.029140493645579312 3.736912973609587e-19)
(0.7118850677407115 -0.06003304396712993 2.3054002958762356e-19)
(0.5838592207555986 -0.106378199717697 1.1244428453017717e-19)
(0.3983153241239711 -0.1452729286951384 4.392254371601643e-20)
(0.39492142347082915 -0.0683029209448287 1.0911817970235421e-20)
)
;

boundaryField
{
    movingWall
    {
        type            fixedValue;
        value           uniform (1.0 0.0 0.0);
    }
    fixedWalls
    {
        type            noSlip;
    }
    frontAndBack
    {
        type            empty;
    }
}

// ************************************************************************* //
