/*--------------------------------*- C++ -*----------------------------------*\
| =========                 |                                                 |
| \      /  F ield         | OpenFOAM: The Open Source CFD Toolbox           |
|  \    /   O peration     | Version:  5.x                                   |
|   \  /    A nd           | Web:      www.OpenFOAM.org                      |
|    \/     M anipulation  |                                                 |
\*---------------------------------------------------------------------------*/
FoamFile
{
    version     2.0;
    format      ascii;
    class       volScalarField;
    location    "8.04999999999998";
    object      p;
}
// * * * * * * * * * * * * * * * * * * * * * * * * * * * * * * * * * * * * * //

dimensions      [1 -1 -2 0 0 0 0];

internalField   nonuniform List<scalar> 
400
(
0.0
-9.650987563473148
-20.338729619777528
-27.55730790649051
-30.41803575246795
-28.39162043603331
-21.53132903706473
-10.447842531980806
3.9313656862846083
20.451625319977015
37.790602924858156
54.53429721016499
69.26058379189942
80.6560971619212
87.66072057204937
89.67000738463862
86.88487279571405
80.4481063326858
73.03044865837802
70.55075373153183
71.92747248218183
68.89299050080949
64.34553576529085
61.1328446528523
60.24668330383944
62.405951730344015
67.7452174749368
75.94664960463533
86.44205561299955
98.45199293163343
111.04989408065404
123.23405496476529
134.00578635237108
142.47836553110997
147.98282950548605
150.1147562443939
149.02190412571198
145.64228533250073
139.58633523699322
130.38739919497078
133.41721646299968
123.61075121144013
118.21601867557236
115.40370606263372
114.5423132398238
116.53420577857345
121.36586290384912
128.6759470460988
137.98898851625455
148.64570463814485
159.85172518536268
170.7386778356352
180.42325505255994
188.10787855847704
193.1707251142629
195.1240930833064
193.93443262003157
190.68724474870638
184.48999725252946
173.02841012022625
189.07344515173153
172.44521623681828
165.31962284840805
162.06855384359997
160.72718085993927
162.5020257294008
167.1790307360057
174.27100391165968
183.31583923226714
193.6878981358851
204.63382070663326
215.3273860201948
224.90636913966182
232.56405069620433
237.63744924891665
239.49461817974412
237.93432498293558
234.23405681622572
226.855218600475
211.53751390655626
244.15557854486576
222.7942456990023
214.41652081223543
210.85116098651625
209.1961778086769
210.923558435226
215.65848885535075
222.8068699469121
231.9166284409892
242.38721446580263
253.49596836828786
264.43991518492646
274.3534012522173
282.39658290601244
287.8353550874431
289.8457438352542
288.0327504087118
283.88898361709533
274.79153092810975
253.9016146437315
295.4458592433954
269.1036711397531
259.1616514984917
255.1894101446825
253.32046508154684
255.25393488282074
260.4623912637976
268.2292077503294
278.0850121603864
289.42582229848114
301.52746891675736
313.57138001266895
324.6422578211915
333.81658457559064
340.23331400533857
342.8140485922873
340.9336702557529
336.33972771582523
325.42564455464355
299.0493132786345
341.6758572298362
310.18361413568715
298.6700769242428
294.42233133251625
292.5926781348882
295.1168538388383
301.306962822369
310.3076855624875
321.6156122485692
334.60677665822993
348.5366393823208
362.55027773569384
375.65713952419793
386.8156409036767
394.9908525437532
398.78650460774844
397.29657713294097
392.5107676707487
379.7607451364052
347.6138741319598
382.1497935834641
345.385066673829
332.5065225113048
328.34354268301666
326.9995785729158
330.64807558971927
338.4191258543349
349.30621877667306
362.77120522366533
378.17334966302275
394.75357504479655
411.6228094296149
427.70943459999637
441.8360120262673
452.75430051779364
458.6686009844025
458.305729364361
453.8752564941174
439.39324887618625
400.75244806485773
415.6593046722398
373.2091591609449
359.23328124660907
355.70455770697185
355.47760144042775
360.9555498000497
371.0443199716804
384.56633134264246
400.95679178958466
419.5777046753528
439.6812698208832
460.36940358827235
480.5047223120371
498.77484249958627
513.6888308531031
522.9511544754965
524.7948822395504
521.6220245454065
505.7318502492448
459.6217223073483
440.71141280172816
391.88466038182713
377.2713425334499
375.23988261188276
377.03330047967324
385.2830527969014
398.6047158382952
415.62174010578906
435.7654399170851
458.4400165098339
482.96090774000163
508.47711461766585
533.8334013541482
557.6146391635617
578.0829089345186
592.3326081542742
597.9345934172745
597.4473707024198
580.8029592737512
525.8895638541981
455.4608148873618
399.1623784473541
384.75802990858165
385.6125464530028
390.75391819786046
403.0667292612014
420.77728810059205
442.2805960346733
467.05251324033924
494.6079546233313
524.4115641393533
555.7574019626023
587.5656607589551
618.3989690710998
646.3211149473776
667.7162922058832
679.2729474068187
683.6813146613445
667.5118822365059
601.9696519237674
457.40848730236917
391.88570261388566
379.30849991740286
385.31389350902106
395.79616683915293
413.9920755654907
437.58438175068306
464.72457476637396
495.0310758496332
528.2389650519247
564.0899011177544
602.1719460734557
641.6319016623098
681.1604697567689
718.7691832829993
750.0895120707493
770.6633642218159
783.4004832748684
770.0913760554297
691.4296200590409
442.6504979866125
365.412561462008
358.096064269777
373.0720811270737
391.886314110278
418.4979522010104
449.85437405280396
483.91121831732346
520.6164055649654
560.0907415537612
602.5268453118109
648.0082533326469
696.1239449441439
745.9244613897614
795.6457834030988
840.2718573291601
874.0021741104629
900.4496273939652
894.8258381431696
799.95047348619
404.61862178135226
312.90378953142283
317.69611660519166
347.90306943847895
379.4989852032105
417.9636522770808
459.36572674023887
501.6889184376104
545.5210101527042
591.6031593563639
640.8060161670456
693.9654619477287
751.4109383763246
812.8810747348589
877.2826660772388
939.3872993045372
991.9513213080713
1039.930028323109
1050.3715844770816
936.2694236434631
331.0703175084377
224.58428464215254
253.3972334128408
308.01334007267127
359.23862117633166
414.51609155364616
468.7819930726645
520.7473474437271
572.1908899231247
624.8080972363753
680.4436711275965
740.9932704109565
807.903054194555
882.0549537550411
963.775602860106
1048.7887453407313
1128.3610105317325
1208.7196641837297
1249.5352014268576
1117.2802833827104
188.05908067060273
85.54956975089543
165.7229501980478
258.5861004793811
338.4009035896888
415.93420582753754
485.12547969055345
546.9659585441885
605.3344533260024
663.2725607812517
723.8619868767297
790.2715258931485
865.3421313336473
951.542272108798
1051.43229113923
1163.5042851614285
1279.026684701359
1408.0467308546233
1513.1547377272364
1389.8874751447602
-92.65458129392456
-119.4540936080566
64.7250752604541
215.38436401768016
332.16800382917495
434.00097579607115
517.1122149614629
586.7652983810276
649.534633569674
710.0831826900849
772.8492439215349
842.2743553400178
922.7382152377683
1018.7480414922094
1135.3744846819975
1275.6072034413762
1436.2462891663617
1633.0913168999566
1849.7415835864372
1823.1469044137746
-561.8650156650588
-374.164907251703
-77.86150811421811
142.8220297087002
319.63363873713735
455.28486544385146
554.5450708549321
632.2905083087264
698.4021703598557
759.6892949489574
822.4896962359662
892.7442499327536
976.8389807377031
1082.3741705182465
1217.9911115286868
1396.9554141306771
1634.1078387544583
1917.6357923960816
2231.9906328595775
2455.1703426259287
-1611.296306851404
-636.2975054877588
-169.59822019730524
105.67154445269924
357.95616896416215
526.6978806245008
630.6091494566623
705.7286462230583
766.4450933042777
820.7796162451239
876.2826728035694
939.4959273508666
1017.6853578639094
1120.5473750104857
1260.7350079015011
1469.604954728623
1795.2905271121117
2178.1459605937293
2693.135523166137
3797.4043364486492
-4300.7994432549
-803.6711697826202
323.4220483189846
560.4463311586538
729.7553847848545
816.573601263978
850.3588505869841
874.8074394767395
898.9148333760669
924.134864745298
953.5209798568842
990.0314203332813
1037.005696227876
1098.8907313841112
1182.1140339385645
1315.2893603052703
1557.431997679782
1922.4375156972737
3086.770669680267
6778.612654258059
)
;

boundaryField
{
    movingWall
    {
        type            zeroGradient;
    }
    fixedWalls
    {
        type            zeroGradient;
    }
    frontAndBack
    {
        type            empty;
    }
}

// ************************************************************************* //
