/*--------------------------------*- C++ -*----------------------------------*\
| =========                 |                                                 |
| \      /  F ield         | OpenFOAM: The Open Source CFD Toolbox           |
|  \    /   O peration     | Version:  5.x                                   |
|   \  /    A nd           | Web:      www.OpenFOAM.org                      |
|    \/     M anipulation  |                                                 |
\*---------------------------------------------------------------------------*/
FoamFile
{
    version     2.0;
    format      ascii;
    class       volScalarField;
    location    "8.04999999999998";
    object      T;
}
// * * * * * * * * * * * * * * * * * * * * * * * * * * * * * * * * * * * * * //

dimensions      [0 0 0 1 0 0 0];

internalField   nonuniform List<scalar> 
400
(
299.80297498188975
299.7207074046636
299.8927917338025
300.10118455211017
300.26979804968965
300.4154343000249
300.5436930679
300.6550374906339
300.7514780990347
300.83338323315684
300.8988987368478
300.9427651193547
300.9572098093916
300.9346048696634
300.86223796098955
300.72881947676836
300.5304026418983
300.2727505731663
299.94170437455995
299.82685685495477
301.24915838439443
302.89799471387886
304.0851595158583
304.9869568153416
305.62732580774394
306.0721227376417
306.3534210668777
306.49933019243775
306.5396650827732
306.49869184733757
306.3966518907267
306.242137826893
306.033338738731
305.7678710484508
305.45068515497377
305.0697333594286
304.5958061740206
304.0281178286341
303.15989999210393
301.19517198211173
300.9558975823967
302.0498796445268
303.48828246450626
304.64550004573
305.52202035031416
306.2185405126766
306.7444185401614
307.122582103801
307.38144114007645
307.5393519070956
307.6079038363501
307.58078010416335
307.43361546716665
307.14469938282525
306.6988940288527
306.0705797014187
305.223200762981
304.2301178750885
303.04032624853534
300.87127756985655
300.91352869201893
301.7367468047781
303.5283676667173
304.9729535222539
306.08741280074673
307.0254324737376
307.77577279808986
308.3584317445913
308.8013063273756
309.1168802385105
309.3097459698596
309.3625151235831
309.23529933899044
308.89517879146285
308.31999173168083
307.47943520402583
306.33497745931226
305.02033496532306
303.54840640496064
300.8856898524377
301.0943297494236
301.9441014552064
304.1391395818979
305.9011181710054
307.2695862250387
308.44807282363865
309.4121031069696
310.1815291998792
310.7847650782358
311.2291227663774
311.51168655856844
311.60803828766836
311.473559440571
311.06990938915857
310.3713621454144
309.3407299980176
307.92941766581373
306.3226678513373
304.54683159471347
301.1183852445479
301.2515616959247
302.1013544319284
304.67346138940104
306.7425123369068
308.35829221540854
309.77133775037186
310.94618465236965
311.9020146278168
312.6671303707384
313.2440695281268
313.62467146292585
313.7795550468126
313.65645490648484
313.2110188673127
312.41239521029064
311.2125555102674
309.5473866743969
307.6479896662486
305.548808901282
301.3406294238539
301.41725558231275
302.2847356855093
305.24658298800296
307.6245159601237
309.48495043695317
311.12868775657483
312.51075502135257
313.6499732364844
314.5745400860765
315.28246930060675
315.76070449875334
315.9770065037235
315.8739837295073
315.40224650250616
314.5248606717237
313.17935764774614
311.28083140306995
309.09818843414183
306.65240891830257
301.58646055376295
301.60461660340957
302.5065366458363
305.8783708027324
308.5690940622448
310.67052904640934
312.53868926408774
314.12014749317586
315.4343832986751
316.5102546573773
317.3418984139073
317.91175434318137
318.18754977257385
318.1107678353415
317.62776073027965
316.69405226307777
315.22872021960274
313.1212370162262
310.677692242917
307.88541047958824
301.85928459409257
301.8043990588035
302.7256811109288
306.52807765534766
309.5319719237663
311.86364836733486
313.9431455971459
315.7090984972858
317.18316700895343
318.39668228176424
319.34148906345075
319.9972031130148
320.33413557444084
320.29515390707843
319.8216273490915
318.8588657046308
317.30273464787973
315.0136475672593
312.3458494239397
309.2374283138271
302.14347523852825
302.0157633837241
302.91763298590206
307.1802392747522
310.49451732872797
313.0361940494905
315.3051111744324
317.23185417588644
318.84273387380637
320.17489781938104
321.2204330888046
321.95813732972704
322.36272109576913
322.38063734702314
321.94553036380074
320.987420969112
319.3713601395223
316.9250201977857
314.07966985850305
310.7197352014223
302.42894097668585
302.2410482167295
303.05331282395395
307.8234675169832
311.4399851914311
314.1576119580654
316.58217862868037
318.634576868263
320.34964642003314
321.7756390915095
322.9085570731485
323.72905132762855
324.21703403582757
324.3242271213599
323.9710885881419
323.06339447034287
321.4212895849943
318.8286178675821
315.84618005621877
312.3405017146128
302.6986155120692
302.4867515125816
303.09153032465804
308.44473907799465
312.34154451331307
315.18174973339984
317.7152219717676
319.84565275222
321.62197479042067
323.1109889645988
324.3176172490171
325.2286744752752
325.82949281988755
326.078037360604
325.8737251255684
325.0851113596602
323.4628948106127
320.7129287786646
317.59672380080485
314.09344138956925
302.9222569918924
302.75591282178203
302.9830107298847
309.05493514581855
313.1851290294584
316.06775471860715
318.6492859238042
320.7958236520091
322.5779251485899
324.09034854778776
325.35285900386134
326.36540875568596
327.120344414662
327.58257222657977
327.62189530455856
327.0539240624847
325.52374145331777
322.58312434917116
319.25836126481676
315.94088807760096
303.0797024370811
303.02886082854644
302.7006169654732
309.7350939594752
314.01218552382716
316.8138937847339
319.3553888168705
321.4337906375785
323.15086145832856
324.63603264765806
325.9272820138778
327.0477721797306
328.0041243149407
328.7697850668308
329.17982452927896
328.9821287458629
327.6767536944787
324.5224147341533
320.7651036386368
317.7126877277521
303.16205089061134
303.39015030235237
302.3834248232685
310.51312268004136
314.70377781181185
317.2834717506735
319.7058676973686
321.64254436133194
323.2440304756045
324.6703836036548
325.9702027492413
327.2036702714743
328.4113381026017
329.57766228894724
330.51501039962966
330.9074126204627
330.1038785992576
326.8525810922207
322.2278726079784
319.00764249851557
303.1299664065439
303.78870441979876
302.5282112683659
311.57657652805267
315.1636957089191
317.43529063687845
319.7426761786812
321.50930179489035
322.9882614269648
324.36408275080254
325.6591117482572
326.9792475644613
328.4200633725973
329.99189380488326
331.5297969086112
332.6939432812199
332.7679452447674
329.8119977787311
323.8894055288741
319.45556370490453
303.7526018607677
302.5452844931678
304.2871032396589
314.8256252656276
317.2269455404627
318.7927737735522
320.63954171764635
321.9842444736016
323.19675797202007
324.42876930967293
325.69369094357177
327.0576497167848
328.60891634906585
330.37401993824494
332.2904172049724
334.13330298490104
335.2329514381225
333.2622507041777
326.1126162169976
318.18770527372004
306.96098385650373
303.2123158015043
311.88697764783046
318.9660979010746
319.13700494829317
319.81666231920246
320.8387223377548
321.9113237490042
323.19683726196723
324.6245868361341
326.1442280877179
327.7879154958368
329.62280341186903
331.71312290691566
334.1468468278579
336.7761474390642
338.9949279551059
339.8527982364914
332.83711652084486
312.7393000255103
308.57958007924515
320.4945662281796
333.29634062687956
314.7362543142753
311.17150657218207
314.4397325037246
317.6794242697644
320.622419732305
323.4594416632534
326.04464086775573
328.39661835355906
330.64388139412665
332.9346543876194
335.45600165639115
338.5309613506704
342.2746521242413
346.5490498699003
352.78762008380045
349.65598831150515
307.7345796098819
308.1518481547844
287.75711650523965
351.8880847905375
344.8116926990595
341.2956655902477
342.58712313374025
343.15670385192715
343.30869678330583
343.5473082881477
343.82684552894557
344.11235041212467
344.4027497193621
344.653110836588
344.8504947115926
345.017364121786
344.98918929740626
344.5590569765379
345.8327596805025
343.3378111000085
314.46990152991094
365.66897666361086
)
;

boundaryField
{
    movingWall
    {
        type            fixedValue;
        value           uniform 350.0;
    }
    fixedWalls
    {
        type            fixedValue;
        value           uniform 300.0;
    }
    frontAndBack
    {
        type            empty;
    }
}

// ************************************************************************* //
