/*--------------------------------*- C++ -*----------------------------------*\
| =========                 |                                                 |
| \      /  F ield         | OpenFOAM: The Open Source CFD Toolbox           |
|  \    /   O peration     | Version:  5.x                                   |
|   \  /    A nd           | Web:      www.OpenFOAM.org                      |
|    \/     M anipulation  |                                                 |
\*---------------------------------------------------------------------------*/
FoamFile
{
    version     2.0;
    format      ascii;
    class       volVectorField;
    location    "8.04999999999998";
    object      U;
}
// * * * * * * * * * * * * * * * * * * * * * * * * * * * * * * * * * * * * * //

dimensions      [0 1 -1 0 0 0 0];

internalField   nonuniform List<vector> 
400
(
(0.0002908394919069089 0.002790011328225159 -3.968556175897927e-21)
(0.00046175421103336703 0.005149723041081261 1.0463004718065733e-19)
(-0.0008303928085701798 0.006328331723622168 -1.0684278436033442e-20)
(-0.00327982705066155 0.006956590625191619 -1.7159627379926631e-19)
(-0.006301374369867017 0.007229234711517375 -4.050034931799945e-19)
(-0.009487057279549472 0.007242715914510953 -1.1404394290543955e-18)
(-0.012490108456209778 0.007056494017422781 -1.3846548162728573e-18)
(-0.015016099309018895 0.006718719031195308 -1.4274736205630764e-18)
(-0.016841263733893653 0.006271416754397277 -1.82819087574504e-18)
(-0.017809935614180282 0.005753700023591742 -2.4074041585896166e-18)
(-0.01783505415878109 0.005205628767435207 -2.612556512550449e-18)
(-0.01690328752745662 0.004671131784279714 -3.473341379770571e-18)
(-0.015081320294071094 0.00419924580594122 -4.587954531584189e-18)
(-0.012521843900417594 0.0038442622732603525 -5.429432988125843e-18)
(-0.009469399835067943 0.003666609370896897 -6.478728379474504e-18)
(-0.006261830683571859 0.003721282805178245 -5.9832881688036636e-18)
(-0.003304272822074237 0.00402478226727804 -5.241882818474195e-18)
(-0.0010400831746414734 0.004506328377678316 -4.2089063631624185e-18)
(0.000176224505017117 0.004854970833981119 -3.007488960336066e-18)
(0.0005552454788309912 0.003606267512464881 -1.197731502550878e-18)
(0.00033830500699170535 -0.0006715663689478217 -9.752122700777946e-20)
(-0.0014705795761883293 0.00129657836591433 7.857238964569757e-19)
(-0.005595382648700228 0.003341378730674667 -7.269331128127219e-20)
(-0.011680325775718776 0.0047079097780504875 -5.678534354312859e-19)
(-0.018913733294648512 0.005371660580437685 -1.7578263881969315e-18)
(-0.026482270253344587 0.00535608766226859 -3.866089438708254e-18)
(-0.033596998927789015 0.004743470317305242 -4.342283728607665e-18)
(-0.039573800842612146 0.0036534034484736392 -4.001404759528935e-18)
(-0.04388297964795179 0.002210004897693702 -5.511911718176749e-18)
(-0.046154381433819475 0.0005408187555067329 -7.681651439949738e-18)
(-0.04618600886853056 -0.0012192606957016257 -7.188605161636328e-18)
(-0.04395630060321956 -0.0029266219516995073 -1.0139396522241535e-17)
(-0.03963436496812087 -0.004427552042635288 -1.4015286583753163e-17)
(-0.033583491036839386 -0.005561693969822139 -1.608304814948179e-17)
(-0.026358520977404168 -0.006170189766975466 -1.6486859463762696e-17)
(-0.018697692876786222 -0.00611072247737696 -1.8211983469678152e-17)
(-0.011431355102325591 -0.005313471905101844 -1.5896084860663713e-17)
(-0.005337749975440132 -0.0038102551726055373 -1.2263112655584015e-17)
(-0.0014265324163223187 -0.0017151319625642817 -9.443617584087093e-18)
(-0.0004838342739134667 2.798876210866049e-05 -4.124102724493818e-18)
(-0.0009166778562934886 0.0004799500201909509 1.1186699366023214e-18)
(-0.0038122846213436415 0.005116467019900374 3.0860489794730577e-18)
(-0.010671016269827218 0.009778384850044562 1.5551743157647647e-18)
(-0.020127694911555954 0.012950692648516199 1.8795750559100585e-18)
(-0.03088104915586045 0.014467110773510585 1.493616062826641e-19)
(-0.041939072467239345 0.014329410556145505 -3.548648006315486e-18)
(-0.052236676287891505 0.01270296642273063 -5.734518636017256e-18)
(-0.06083737752692937 0.009862050580126505 -7.097285557117782e-18)
(-0.06701813786913947 0.006114915744570041 -8.990872575474718e-18)
(-0.07027037708297434 0.0017902926735582074 -1.1217261651583235e-17)
(-0.07031701965347502 -0.002762268760303032 -1.2744728187303808e-17)
(-0.0671293324922602 -0.007171644562050614 -1.56537446130844e-17)
(-0.06093901768026969 -0.011048457462663525 -2.053166461707752e-17)
(-0.05223958552981528 -0.013998291714842445 -2.383086678125311e-17)
(-0.04177745892267164 -0.015646826624532546 -2.5217798610859723e-17)
(-0.030545428081612102 -0.015684986947440752 -2.5499738090951977e-17)
(-0.019662415073378556 -0.013966681139850824 -2.3384781078162502e-17)
(-0.010128518669208863 -0.010588762840177287 -1.9336950272524077e-17)
(-0.0033084050441319307 -0.005899320769365965 -1.368782489939846e-17)
(-0.0006986630102155018 -0.0011347473225553507 -5.367615646470716e-18)
(-0.001600542713698283 0.0033200892508314568 2.2298304346546145e-18)
(-0.0056510259807445486 0.012300004473404687 3.87800931209603e-18)
(-0.015325149067706195 0.020264986496075856 6.797018215329602e-19)
(-0.028100372698506758 0.025589020955423387 1.5804736629767891e-18)
(-0.04215117074739414 0.027992202900466938 -3.7072852330715856e-19)
(-0.05635190454794292 0.027497112567873454 -4.3122199100310196e-18)
(-0.06942889364796136 0.024394208294944885 -7.276299516670122e-18)
(-0.08027259561078137 0.01915038408901078 -9.349111567569276e-18)
(-0.08803981065770969 0.01230439304947002 -1.1954185083420647e-17)
(-0.0921354124279736 0.004438116334349727 -1.4989911541493665e-17)
(-0.09223184045088982 -0.0038292548050313075 -1.65171905679232e-17)
(-0.08828855629979576 -0.011842125211274354 -1.8708313114673532e-17)
(-0.08056596717742455 -0.01891626659674275 -2.8195620755224043e-17)
(-0.06962974905990134 -0.024364284721422127 -3.341581393502764e-17)
(-0.056346828066792455 -0.027540782520188118 -3.5412667775458777e-17)
(-0.0418974171010456 -0.027921214754270507 -3.5588973847415986e-17)
(-0.027645243862935036 -0.025243923244210615 -3.3355667921909965e-17)
(-0.014823962238701716 -0.019625959785658488 -2.8137153924354543e-17)
(-0.005275010541972608 -0.01160984926646575 -2.052074005710432e-17)
(-0.001307773824333422 -0.0029627109709358754 -8.970519939881831e-18)
(-0.0021189074924029784 0.00671273638433385 4.930798565655611e-18)
(-0.007413625627241421 0.02095402042268705 8.617963268385602e-18)
(-0.019811189046406094 0.032719632231825675 3.2703290240666324e-18)
(-0.03577681560661757 0.0403396572241281 3.600121807362864e-18)
(-0.05296740949547482 0.04350894951324548 1.2695775258349346e-18)
(-0.07009665995493103 0.042352855853194704 -5.153841014369537e-18)
(-0.08571047282003423 0.03734113621750482 -7.828848600788411e-18)
(-0.09857407250398634 0.02916876043621769 -1.0143442741989543e-17)
(-0.10777140721533188 0.01863229071140956 -1.3602154821092379e-17)
(-0.11265630654872025 0.006588978779377016 -1.8784086111143312e-17)
(-0.11286578502496475 -0.006051763612458498 -1.8959752798377648e-17)
(-0.10833842104190637 -0.01832985008786031 -2.2433637486316758e-17)
(-0.09933178186658459 -0.029242785677147085 -3.0190100556314914e-17)
(-0.08643543378382956 -0.03777697615491207 -3.7211853556682934e-17)
(-0.0705824999482084 -0.04297045223168628 -3.965983561413128e-17)
(-0.05309613278364444 -0.044022184071463896 -4.011823777998365e-17)
(-0.03555673104098242 -0.04047669664230768 -3.8927752611629337e-17)
(-0.019422626855129955 -0.032371817129643606 -3.070731028671139e-17)
(-0.0071129671988911245 -0.02029320721272309 -2.2034101708198026e-17)
(-0.0019319638396199876 -0.006236084527016015 -9.75878698021376e-18)
(-0.002661066311399539 0.01106165928663995 4.363745663383912e-18)
(-0.009151931933862678 0.031878774914254095 1.3101420319970072e-17)
(-0.02420961045108423 0.04816666242168878 8.777888920853058e-18)
(-0.043302156875182775 0.05830491446156438 8.111416878478e-18)
(-0.06353419642368896 0.0621291065711531 7.442800677447798e-18)
(-0.08344717709764635 0.05998610285675863 2.7518281295321426e-19)
(-0.10143128726651628 0.052607210128300705 -6.8013673981022895e-18)
(-0.11616505108118687 0.04096943529909582 -8.822066220378167e-18)
(-0.1266991660906211 0.02615741547635499 -1.248857311075668e-17)
(-0.13236614131673766 0.009317537937611652 -1.7635783535691883e-17)
(-0.13277864251526597 -0.00834572884046859 -1.7439119693068764e-17)
(-0.1278427493436911 -0.02556191141772063 -2.070983933855809e-17)
(-0.11777995825926552 -0.04099445947074693 -3.118899779531447e-17)
(-0.1031549836478693 -0.053270889706937725 -3.6397437628608834e-17)
(-0.08491450813983079 -0.06105584783813525 -3.800116017772434e-17)
(-0.0644847529974467 -0.0631879545251106 -3.827293965900457e-17)
(-0.04364898591367901 -0.05891066530515423 -3.509087747063494e-17)
(-0.024110447968971813 -0.048070070286469646 -2.4822959919484578e-17)
(-0.008927723353960826 -0.031201062031524604 -1.7172830325123234e-17)
(-0.002471721237174346 -0.01042719305624807 -8.277630660242022e-18)
(-0.0032006106471687834 0.01636349156521345 3.892793401710972e-18)
(-0.010893425610576855 0.04506888045967385 1.2993379043423496e-17)
(-0.028628732285024924 0.06656843073353592 1.0940573473019808e-17)
(-0.05082399426018475 0.079407104483281 1.27546525652756e-17)
(-0.07400288020239085 0.08372773153507145 1.1633966286428111e-17)
(-0.09654306480460022 0.08023619509954785 6.652199838579049e-18)
(-0.11671182677420208 0.07002688242528715 -9.453322724178359e-19)
(-0.1331472610869148 0.054421429382398995 -5.234167643999957e-18)
(-0.1449135182363562 0.03481870994982513 -8.773979862997923e-18)
(-0.151356630694709 0.012653840824373196 -1.1606111550038968e-17)
(-0.15207913730582356 -0.010588949391798767 -1.20357494848519e-17)
(-0.14694367779319037 -0.03334590410195045 -1.093501962812602e-17)
(-0.1360990032580246 -0.05395125947312684 -1.9101967539807368e-17)
(-0.12002781865902855 -0.07065223011573392 -2.2282662973549744e-17)
(-0.09962483684447318 -0.08168044781382221 -2.2457796226848324e-17)
(-0.07636452535029987 -0.08541066100210541 -2.3317440603844597e-17)
(-0.05220645017779688 -0.08064467722788321 -2.1138682831724266e-17)
(-0.029115920344523802 -0.0668783024476977 -1.540841377410942e-17)
(-0.010877658473458243 -0.04444609462482161 -1.0868989510244931e-17)
(-0.0030470063416713268 -0.015557279004104191 -4.39347653373625e-18)
(-0.0037761918361968036 0.02259692155708965 2.554382126181279e-18)
(-0.012727470503981413 0.0604635250541035 7.152133735978118e-18)
(-0.03320184061865979 0.08780246913389879 9.805627760354856e-18)
(-0.05846161440550948 0.10343451895718221 1.1652492238801125e-17)
(-0.0844192604517615 0.10800390866069601 1.0991883914831208e-17)
(-0.10931939232227691 0.10274551396183096 7.402332972660474e-18)
(-0.13136197663893998 0.08923798298549854 2.312114967897072e-18)
(-0.14921349503600537 0.06921522922216805 -1.9196624931389513e-18)
(-0.1620176021380416 0.044408223945892424 -5.2275494125038384e-18)
(-0.16918333249748027 0.016521452019114945 -7.504223279165892e-18)
(-0.170327136121914 -0.012722124127338195 -8.559676191767096e-18)
(-0.16526110699149912 -0.04151175766190333 -9.420709174336993e-18)
(-0.15402030689206453 -0.06788500747801976 -1.2163065688368589e-17)
(-0.13693326594381855 -0.08970669038781165 -1.2213508508303978e-17)
(-0.11475020571025955 -0.10471936216686599 -7.860464744007411e-18)
(-0.08890420863499335 -0.11071141251233703 -1.2291305520791048e-17)
(-0.0614679135416701 -0.10586090890872712 -1.0867129367335413e-17)
(-0.03465285791969455 -0.08909606378945274 -3.711533209044801e-18)
(-0.01307943231176788 -0.0603303804931052 -5.060982299107467e-18)
(-0.003717040385111593 -0.02177271161541325 -2.2213729035582373e-18)
(-0.004432227119648403 0.029845714462908134 1.7905212774417367e-18)
(-0.014726063874727812 0.07818446707931455 3.1033085704470006e-18)
(-0.03802979635779905 0.11191135223336401 9.6808848035245e-18)
(-0.0662600151248638 0.13028274521589053 1.3284090149180454e-17)
(-0.09467742151374663 0.13471097911656904 1.344716879933521e-17)
(-0.1214616428015457 0.12717878941510388 9.835805170788815e-18)
(-0.14483903243460117 0.10989379279107518 5.094521693195281e-18)
(-0.16360809477430774 0.08507329306015599 8.414216372564708e-19)
(-0.17708725002589712 0.054785709202571364 -2.430024083380894e-18)
(-0.18482014846980516 0.02096185159001986 -4.5316415182682124e-18)
(-0.1864769524589546 -0.014509316217134641 -5.448326402440708e-18)
(-0.18182112409681694 -0.04965285027091667 -5.991286109847082e-18)
(-0.17073186128299686 -0.08227972366277235 -8.229550510921074e-18)
(-0.15329483886211753 -0.10990285968037783 -7.727776172797293e-18)
(-0.12998708164242515 -0.1297365243326934 -2.927763568059808e-18)
(-0.10205803715767223 -0.13884855133188087 -7.254203031854835e-18)
(-0.07156980445674746 -0.1345628127111477 -5.841831623617135e-18)
(-0.04090847041753115 -0.11493992954021735 8.762918192127702e-19)
(-0.015651978245942538 -0.07914770841727319 -2.187434554790284e-18)
(-0.004535408065970625 -0.029234112624385876 -1.2136732035491567e-18)
(-0.005218482095694488 0.038229019033222206 2.7977785314171717e-18)
(-0.016970982127124258 0.09838639300192382 1.0075389385169132e-17)
(-0.04320690940087882 0.13888342658532454 1.2536264843886675e-17)
(-0.07418972271965821 0.159681517376773 1.9471261792140506e-17)
(-0.10448973798212288 0.1633491188231657 2.0372623914437924e-17)
(-0.13235217904902555 0.15290245146677592 1.343598384196308e-17)
(-0.15617801857611938 0.13134808347535565 7.683431781246967e-18)
(-0.17504671707247796 0.1014551066666505 2.9896352577140023e-18)
(-0.18858196497390442 0.06561399617461984 -5.529759633822315e-19)
(-0.1965595283621466 0.025908044592062623 -2.7357007557112655e-18)
(-0.19876327289791218 -0.015718569186195665 -2.9972470409170437e-18)
(-0.19492532917611888 -0.057254845137626964 -1.119303721483212e-18)
(-0.18473401436996564 -0.09640721094714483 -7.353271735090295e-18)
(-0.1679333957934078 -0.1304203301453236 -8.302775049534287e-18)
(-0.14456066017677238 -0.1559821264830025 -5.828413256270083e-18)
(-0.11547099439245462 -0.16931216109874014 -7.406490414450075e-18)
(-0.08249938393757081 -0.16659968304765807 -5.751224213752215e-18)
(-0.048034576370073134 -0.14462116629565266 -1.2535711097844642e-18)
(-0.018725747430802957 -0.1012912788092639 -2.633741988059721e-18)
(-0.005578711414867089 -0.03817986459375386 -1.3760685601755566e-18)
(-0.0062311037651946715 0.04792346045600346 2.012926519638261e-18)
(-0.01959736253777348 0.12126246000697159 3.9499919636123916e-18)
(-0.048853105683851115 0.16860334976206523 1.1937086675717307e-17)
(-0.08213886542735357 0.19109335193541335 1.6567405193342865e-17)
(-0.11333208162624034 0.1930385768723024 1.8413357693747794e-17)
(-0.14098033821876854 0.17885626308385688 1.4836175513095707e-17)
(-0.16388195271160544 0.15254029735831753 9.38275890504743e-18)
(-0.18159869347501406 0.11746290797058682 4.438006817229633e-18)
(-0.19422436391579045 0.07628744882992664 2.930501909220698e-19)
(-0.20188640289236148 0.031137304669009398 -2.841200625952005e-18)
(-0.20456172175733361 -0.01614072604522545 -3.537695993251e-18)
(-0.20198988235959395 -0.06367764745453273 -5.633666384812674e-18)
(-0.19365440077194013 -0.10926081420792456 -1.163355699109804e-17)
(-0.1788674427776467 -0.1500271208013915 -1.1894910415523765e-17)
(-0.15703454028085614 -0.18221782940128628 -2.9451340001793305e-18)
(-0.1283314762771605 -0.20112147197100186 -9.305444666099442e-18)
(-0.09401985961904925 -0.2014811915090432 -8.238097596910668e-18)
(-0.056142901713535476 -0.17823081778306896 2.236988463349921e-18)
(-0.02246547919790968 -0.12723243003150908 -5.354392910004125e-18)
(-0.0069661106747180256 -0.04894260466868263 -2.6679320791005336e-18)
(-0.007668759833413204 0.05922876442892161 3.2638021772347274e-18)
(-0.02285189716930196 0.14707301421114546 9.097836751178693e-18)
(-0.05513971708449425 0.20077781097787403 1.4979962897827574e-17)
(-0.0898616330180778 0.22356987472374706 1.6900783294845036e-17)
(-0.12032180454333621 0.22236098107171517 2.180004068977576e-17)
(-0.14578326052168203 0.2034140497378308 1.8192690259532673e-17)
(-0.16575579142916172 0.171888163131133 1.1671803927720359e-17)
(-0.1805340804898201 0.1317637526636025 5.9409589744615205e-18)
(-0.1908664151864078 0.0858746729453179 6.753636638914695e-19)
(-0.1973559496006814 0.036227538252381744 -5.476360328554033e-18)
(-0.20026049082001637 -0.015619340849620795 -2.817514414951502e-18)
(-0.19938873545427824 -0.06816101449845317 -5.3022018333607635e-18)
(-0.19404511607346892 -0.11951579135749925 -2.0022602622537212e-17)
(-0.18306262903255946 -0.16697029303512959 -2.2370396937341908e-17)
(-0.16503759623546746 -0.20652458458656184 -1.3059610392976951e-17)
(-0.13912994331016126 -0.2325690566480338 -1.4045040218480187e-17)
(-0.10552849498671124 -0.23811584552952006 -1.8923323291707138e-17)
(-0.06529072145148733 -0.2155537655344615 -1.0344994769274171e-17)
(-0.02712936076550182 -0.1574708878518242 -1.637045564778155e-17)
(-0.008924379403780642 -0.061982542211101666 -5.226090048716895e-18)
(-0.009939757818928726 0.07266756776297491 4.918061940494852e-18)
(-0.027177883352979694 0.17613919103782333 1.403100556977015e-17)
(-0.062271513705892775 0.23478036574590794 2.234260893787949e-17)
(-0.09681175925386645 0.25554000136985927 3.2532876310475324e-17)
(-0.12395245905915035 0.2491597680538116 3.466514784714711e-17)
(-0.14435517801475445 0.22423207906861198 2.5888691237825114e-17)
(-0.1586446926998272 0.1871910857983615 1.6089116826620694e-17)
(-0.16812033299850282 0.14253180065963736 8.390959489997724e-18)
(-0.17434912296726068 0.09307584910577407 3.2021016867133623e-18)
(-0.17850000865545182 0.04050927109800626 7.098331259930456e-19)
(-0.18118151744585498 -0.01411269138915952 3.0139967018772753e-18)
(-0.18234742956139222 -0.06989139589922666 9.744399460353564e-18)
(-0.18120551183925865 -0.12557046366269725 -4.4213320863216025e-18)
(-0.176155112828609 -0.17894323009930152 -9.545293974211593e-18)
(-0.1648980857880786 -0.22615168239702355 -9.551319555572157e-18)
(-0.14526835151923773 -0.260947667160609 -1.0293965433543177e-17)
(-0.11575368514320857 -0.2744735689631777 -1.0689194185106674e-17)
(-0.07536574293078585 -0.2557883794408181 -8.52990117322991e-18)
(-0.03312847940510496 -0.19247061874301735 -8.102816970027281e-18)
(-0.011915136052586962 -0.0779785885937958 -3.2146865767602047e-18)
(-0.013784928626443248 0.08927496664039414 6.384757421245574e-18)
(-0.033239062473165694 0.20878796699188423 1.7195619849073083e-17)
(-0.07025281283803399 0.269235941042285 2.750275323777561e-17)
(-0.10168648117719842 0.2843535154655321 4.047827110861033e-17)
(-0.1215616709920547 0.27018915070561184 4.2702370713161123e-17)
(-0.13294744510858458 0.2380340022398326 3.5720619265201696e-17)
(-0.13803709775657275 0.1955342144556412 2.0431559456703085e-17)
(-0.139362635089091 0.14742589959846003 9.554253340680406e-18)
(-0.13937644566061042 0.09622049234356926 3.723403298411684e-18)
(-0.13980373639367646 0.04303945052522384 2.3583681405366056e-18)
(-0.14160927902297876 -0.01176952717588216 4.164929087620276e-18)
(-0.14495728009995132 -0.0681251876360504 1.4400243157095293e-17)
(-0.14910320036520766 -0.12567622994906505 3.137386457667613e-18)
(-0.15220645778268085 -0.1831368135309232 -2.1606469232591363e-18)
(-0.15119890817028153 -0.2373698976103435 -4.508807380680874e-18)
(-0.14245495472962685 -0.2821106137625626 -5.805348886409748e-18)
(-0.12214496528325548 -0.30689233784981435 -6.1221736508037924e-18)
(-0.08573462388339058 -0.2968886190666738 -5.403292710501174e-18)
(-0.04102928981372029 -0.232553398304686 -4.340918336442715e-18)
(-0.016738615964264958 -0.0982337699904937 -1.7247500615964668e-18)
(-0.020288893812071558 0.11117658282283133 9.312554788448342e-18)
(-0.04194090848597927 0.24504144659659327 1.8059687105347648e-17)
(-0.07830237114854215 0.3010399002717672 2.88552675190337e-17)
(-0.10138062340162116 0.3053408777822163 4.0995451999457445e-17)
(-0.10825441170494751 0.2805331960025228 4.3056772467664264e-17)
(-0.10557536581227518 0.24039467456746352 3.9838252911836685e-17)
(-0.09743638390304704 0.1933165816428956 2.2658361528695942e-17)
(-0.08765571568113266 0.14373054073612887 6.674099621987008e-18)
(-0.079412984273336 0.09341546547178207 -6.250398883708599e-20)
(-0.07478642515811257 0.042677831648903014 6.416619894139868e-19)
(-0.07497567227971298 -0.008976613393117169 -4.736463288598183e-18)
(-0.0803671400471956 -0.06238254142997851 6.05784754634761e-18)
(-0.09044902411584929 -0.11825872182513075 4.9295022538262426e-18)
(-0.10351354337188866 -0.1765963800036402 1.9248898835752595e-18)
(-0.11618693369675932 -0.2356647080677332 -5.868741802034782e-19)
(-0.12368908179475686 -0.2902433451107629 -2.2490481839287693e-18)
(-0.1197093922941248 -0.32930284396500936 -2.9861865778303077e-18)
(-0.09456988576353534 -0.33441313347604257 -2.9198150023641746e-18)
(-0.05163930765542816 -0.27711474834757277 -2.2663599753215605e-18)
(-0.02457209085201979 -0.1250680785247128 -8.847078435847169e-19)
(-0.030656726756203248 0.14083632617280567 5.739443254710307e-18)
(-0.05397655967196224 0.2831929239090212 1.6178330199824812e-17)
(-0.08326545701958164 0.324942965386356 2.7655715726341873e-17)
(-0.0887723633960491 0.3123588829723568 4.0690184731043814e-17)
(-0.07487494719953781 0.27457325840297225 4.7108879364712774e-17)
(-0.05255491184477528 0.22689174613654284 4.253112287560068e-17)
(-0.027519525273588707 0.17741323476806026 2.5954745849168607e-17)
(-0.004462607426792275 0.12938050545104368 1.3341367055703302e-17)
(0.013252839859487494 0.08334806229794395 6.3950186097403384e-18)
(0.02367114095587627 0.03861899031825454 4.760257104365471e-18)
(0.025653691353659257 -0.00614309259029226 4.564400693141649e-18)
(0.0186748703150453 -0.05259782019861656 8.086673511312863e-18)
(0.0028458471462655404 -0.10247511301388433 7.442452434151695e-18)
(-0.02075300812951049 -0.1571774705193798 4.8135431931291044e-18)
(-0.049295546796114094 -0.21696119186501533 2.1623907506752823e-18)
(-0.07789053995104037 -0.27908167758311464 2.1912542047950404e-19)
(-0.09873048691497696 -0.3339577614781734 -8.73159996215206e-19)
(-0.096434224462739 -0.3608506103100338 -1.2331414100867194e-18)
(-0.06476590010600972 -0.3224389133535287 -1.0433700368990449e-18)
(-0.03675496366235272 -0.16030505585178337 -4.1535186900717572e-19)
(-0.04262386119197157 0.18132308220017423 3.371461947885746e-18)
(-0.06406236741671241 0.31725124796887166 1.2835133285716496e-17)
(-0.07332769113851363 0.3314514895568058 2.4105516269582747e-17)
(-0.04829058712382013 0.2975664232936725 3.729977129014013e-17)
(-0.005468944664585774 0.24651212490997532 4.5360289573219516e-17)
(0.04075730801116014 0.19379893063986142 4.272687615698074e-17)
(0.08418095922808246 0.14589672107821297 2.7472808401162635e-17)
(0.12036534316666185 0.10359625596811191 1.5779447502346367e-17)
(0.14681891856125828 0.06574535629918055 7.845029154269062e-18)
(0.16242947925634754 0.030640951814477308 6.822093134359047e-18)
(0.1665459437339333 -0.003679559656212983 8.338932194844122e-18)
(0.15868101940572013 -0.039356876668458704 1.109007880048307e-17)
(0.13846472765992862 -0.0787382020467863 9.829613625574585e-18)
(0.10589933162301039 -0.12433717755572994 6.754718843041123e-18)
(0.06213534827127613 -0.178530356224746 3.834830276593615e-18)
(0.01052548464234819 -0.24240763775851734 1.6948698197593333e-18)
(-0.04152746562688327 -0.31053334590418913 3.9355007508229425e-19)
(-0.07565184452686378 -0.36308903801194703 -2.201096481274451e-19)
(-0.07204133275575803 -0.3607578400171925 -3.4496021045783916e-19)
(-0.04918064989592339 -0.20849433305176374 -1.5662746040998987e-19)
(-0.03545567635225898 0.247552861950701 -1.3728441473941772e-18)
(-0.05164056290290378 0.33441058035800997 8.075727441870706e-18)
(-0.01780156415454438 0.29409634027534576 1.818780939625084e-17)
(0.051533969449507305 0.2395263939880476 2.9458265109832703e-17)
(0.12618355428770822 0.1832141230947792 3.5936299173604445e-17)
(0.19498507036767468 0.1343386409158261 3.868050485531529e-17)
(0.2530298302218944 0.09593508446638262 2.5845328656821756e-17)
(0.2976822254909408 0.06556487687921596 1.41931827469197e-17)
(0.3287760644692524 0.04041651805251933 8.340235038716667e-19)
(0.34684021332374665 0.0182920338462296 5.4802145350472775e-18)
(0.35210276800363255 -0.002748309939976228 9.000572430366807e-18)
(0.34431990447982375 -0.02461120204521658 1.2927823727335848e-17)
(0.3227100868600236 -0.0494390933933691 1.1053869088911426e-17)
(0.28596428848881966 -0.07990292193171664 7.489376743963097e-18)
(0.23248573898537422 -0.1196193479639361 4.4095291113346605e-18)
(0.16246714837300816 -0.17330183120781695 2.2637443630898026e-18)
(0.08085858074320722 -0.24182646926794316 9.520244942952266e-19)
(-0.001446925565722953 -0.31537156948296835 2.656546594283506e-19)
(-0.05213990430377628 -0.3751986426102647 -1.581090750999376e-21)
(-0.036023893228508894 -0.28451240481740775 -2.8747741372118677e-20)
(0.044149693674816845 0.29484881988316863 6.797954600624843e-20)
(0.021787201912407544 0.3009446338760887 3.978129134394691e-18)
(0.1383954357289841 0.20097779941017074 1.125095607832805e-17)
(0.2670990678697432 0.13858662958127907 2.0812096225102497e-17)
(0.3636569140903415 0.09370639555427773 2.7127665977412153e-17)
(0.4390801098337499 0.06157686542790574 3.1265367679340356e-17)
(0.49662280200079045 0.040489915785590046 2.0877526563199305e-17)
(0.5373076517681037 0.026135325147238438 1.20424243955378e-17)
(0.5640469299105375 0.015365212838538277 5.85694708991962e-18)
(0.5791199951213876 0.006437097583370814 5.658436422912749e-18)
(0.5835221124197618 -0.0018192549758854802 9.236395975232652e-18)
(0.5773034099915986 -0.010411515413222725 1.972118950179108e-17)
(0.5596198899674053 -0.020503354420642664 1.2176402937613215e-17)
(0.5283905625634012 -0.033811255834877096 6.8663912418213405e-18)
(0.47954407638864177 -0.053366864623337444 3.7695785618803025e-18)
(0.40933298830213793 -0.08475764967059937 1.958625787539253e-18)
(0.31500523244579 -0.13471071209373456 9.14354795919544e-19)
(0.17770773526083358 -0.20876307132408511 3.5431699808542514e-19)
(0.0338817703987929 -0.3174889389811038 9.994139497836048e-20)
(0.057023966702631525 -0.31699626526355834 1.497943504995447e-20)
(0.3501734416087283 0.0547553861667105 9.348256293737235e-20)
(0.3809347348279448 0.1557901108786808 1.2131356540820848e-18)
(0.5431593156044007 0.12752596961833362 4.4166821424939175e-18)
(0.6810214028052449 0.08631851899299259 1.1820607790809807e-17)
(0.7515480411649637 0.05200378405204595 1.868778742808724e-17)
(0.7929531405794104 0.030798821725126685 1.9616608904845013e-17)
(0.8202616758527689 0.01942582132970633 1.0319669347824201e-17)
(0.8374466646987946 0.013183133869463553 5.2500938878715645e-18)
(0.8478051663554188 0.009396601618183615 2.8158270994175765e-18)
(0.8532313483258998 0.006712496733342873 2.5048822894736886e-18)
(0.8543591529741943 0.004390961141416991 4.499173579059321e-18)
(0.8512269712268862 0.0019614708351468318 1.2433986434737422e-17)
(0.8434111534580107 -0.00108354917176639 6.570505643883775e-18)
(0.8296760292828452 -0.005692852466727189 3.1414725665200234e-18)
(0.806897671663965 -0.01369989611178548 1.5658917205953907e-18)
(0.7707424728772502 -0.02913966848424287 7.928924132195831e-19)
(0.7118850076688301 -0.06003243103251038 3.7958722446834154e-19)
(0.5838592146616913 -0.10637778241877367 1.5855720375479208e-19)
(0.3983153492489191 -0.1452726915966179 5.2553098448129966e-20)
(0.3949214437697123 -0.06830285485030563 1.059046812572088e-20)
)
;

boundaryField
{
    movingWall
    {
        type            fixedValue;
        value           uniform (1.0 0.0 0.0);
    }
    fixedWalls
    {
        type            noSlip;
    }
    frontAndBack
    {
        type            empty;
    }
}

// ************************************************************************* //
