/*--------------------------------*- C++ -*----------------------------------*\
| =========                 |                                                 |
| \      /  F ield         | OpenFOAM: The Open Source CFD Toolbox           |
|  \    /   O peration     | Version:  5.x                                   |
|   \  /    A nd           | Web:      www.OpenFOAM.org                      |
|    \/     M anipulation  |                                                 |
\*---------------------------------------------------------------------------*/
FoamFile
{
    version     2.0;
    format      ascii;
    class       volScalarField;
    location    "1.0000000000000002";
    object      p;
}
// * * * * * * * * * * * * * * * * * * * * * * * * * * * * * * * * * * * * * //

dimensions      [1 -1 -2 0 0 0 0];

internalField   nonuniform List<scalar> 
400
(
0.0
-8.492220110353605
-16.329874303553193
-20.49339928019695
-20.811158134293155
-17.080804652398104
-9.5627773077423
1.1760823482698615
14.336816859476889
29.060691426658295
44.38511955920068
59.295736100378704
72.76588178732874
83.84206602750552
91.64185607442494
95.59544548876845
95.64140823037654
92.48051816306334
87.9210207313385
86.37140812996694
70.8115831808516
68.94303976007309
66.25336770772647
64.95945882087214
65.81676749781496
69.36572317478858
75.6239693556627
84.23222806181082
94.70400207953118
106.36491853742068
118.51169608448949
130.3147453157573
141.0218754479355
149.9001803453179
156.38967300279023
160.05339622479642
160.8746348619355
159.5864544580135
155.43113005537307
147.13059933396713
129.38164916020634
121.88624854259238
118.43796989985647
117.41692297917614
118.28456511100924
121.74576290944674
127.68309917910274
135.7734160846171
145.53352979239426
156.4082812575083
167.72169906390602
178.76354368697594
188.7996614760398
197.19747206585797
203.38052202820487
206.91026542257163
207.61714781494595
206.35966029330947
202.18784978384724
192.64707472111849
181.64565632198642
168.8638709939259
164.0211808512947
162.6653237887877
163.2420687732305
166.65381500157122
172.6604587913783
180.79472098395024
190.62319630624089
201.54667783575292
212.9446144559754
224.07899938930763
234.27024812081075
242.81243634941535
249.15016927101553
252.7098073942886
253.2283923870109
251.66415715195342
246.6947332819683
234.78355413485673
233.62177899613158
217.5518391232986
211.74117827318966
210.14808840311866
210.59013585410844
214.12085583154538
220.43063765603128
228.93390300386983
239.18123648874314
250.59396204735822
262.485460919927
274.1918532653114
284.9447701944379
294.0346022508129
300.83888228598494
304.62331417980954
305.03393159374093
303.12588496141456
296.81340848323634
280.8256417600555
282.5679705455578
262.69432582176563
255.60261267605568
253.69795944946955
254.11918104717176
258.0878532360456
265.09159824600385
274.5159534576716
285.8141602580716
298.3706367640999
311.51576539076177
324.49581153504334
336.5271256891734
346.82192117415985
354.6002226697491
359.0133766426101
359.47542993403704
357.21267190129885
349.47280159752677
329.3457860425355
327.6265420075501
303.40706895363763
294.8566376141875
292.7930024685521
293.42269948562944
298.1761179272426
306.43168407093555
317.33362735759795
330.3632470528755
344.7971698513772
359.9555671537075
374.9849957221716
389.09056393679117
401.30017094762724
410.76488759802965
416.3297898865271
417.1788944843019
414.7878916054315
405.42417055022486
380.6475152964579
368.50189142601823
339.15802108750853
329.239272685133
327.2361899428135
328.5088995989912
334.55643644474173
344.64357917882927
357.69870241473075
373.1346999431795
390.2354970939534
408.0989755355353
426.05369972030337
443.06502963192384
458.0681545685346
470.0736428230166
477.5107900291594
479.37264374592786
477.15244072047534
466.12972546720846
435.48769947719273
404.12158940269677
368.56890364287534
357.27997306192617
355.8530858924458
358.26729395329136
366.3132731163671
378.9474662163603
394.9278307237053
413.57076770816667
434.06040913510753
455.5934005661034
477.3234350136415
498.23766725944785
517.1246055626737
532.7369593976916
543.1394373747016
546.8167291853879
545.5209430331274
532.822600935677
494.8282538224483
433.01482383394637
389.71361306755847
377.305401825606
377.2070516834732
381.60931680749684
392.5289122429902
408.6452423702593
428.43081779141573
451.09467305634166
475.8822871640005
501.9754332911615
528.4936072685289
554.4166929991669
578.4569962312528
599.1441567557199
613.9246042798561
620.7797837521973
621.5642309336631
607.5395309433286
560.1042718026507
453.10424507756886
400.1237876457754
387.23275374858605
389.77156108422906
397.3514900780042
412.43685600034274
433.180371185824
457.7455123661044
485.4025043377264
515.372122351079
546.8118757841546
579.1664115175315
611.3248578397983
641.9793033884047
669.5117282669993
690.7168594268105
702.6875932562028
707.5606794382913
693.0873752733627
633.5338928518432
461.34088406366146
396.209088543739
384.2547160197849
391.6055861488741
404.2348897895069
425.20389974334364
452.0484488300713
482.6472081094497
516.2155572951137
552.1337255738299
589.9162446376555
628.9806372410567
668.5747146702004
707.5110883491957
744.0770566610498
774.3710994278346
794.3694859045266
806.6493542057332
793.7528093666341
718.7038423444017
452.8530232914918
372.6131072868019
364.92065602412094
380.78016993588966
401.31330187181203
430.65258934182606
465.51093668862916
503.4151584114205
543.8351239610315
586.4967220172688
631.1633615941707
677.7517342627992
725.8297132614335
774.6503902401712
822.7613084116106
865.5549901238645
897.7232368231017
922.7675982580093
916.0767510898163
821.5525040278822
419.89031986026737
321.8397641839499
325.20134222942767
355.65439812910165
388.4174955631059
429.53091060869644
474.68575392714877
521.3306256887632
569.5057528052199
619.277907487472
671.090723676205
725.5206314139969
782.8628392141993
843.0097195510667
905.2868189188233
964.8606265485547
1014.9460306930195
1060.80113586477
1068.799408848689
951.2860145377522
348.7983329631994
233.30542260755732
259.65565183031214
313.7304993452526
365.5187355923562
423.359970685987
481.75347278499885
538.6673638904275
595.0819140459643
652.0501496272968
710.8371769257351
772.9323505561861
839.6568793985939
912.2384762080311
991.4449726882873
1073.303621714771
1149.6449267127507
1227.5943982966667
1265.0423285044242
1125.5893194079715
204.50669049471975
91.57604535897242
168.24434122674094
259.72099780950987
339.60362261227914
419.7754953776484
493.61153245816735
561.1584161711176
625.3733646658415
688.4131590323685
752.7571288250649
821.0890652467185
896.1150220460619
980.6310341306233
1077.7436953685549
1186.2981577219912
1298.166799526873
1424.9101524418068
1526.0457118535098
1392.1277418735262
-81.75277795276635
-118.58476263233639
61.005406584145376
209.40293126895259
326.08488452919636
430.7900873230104
519.1811318294041
595.5403523200289
665.1388389133159
731.7424289335657
799.1170491739481
871.0974288931225
951.8967040296321
1046.3309593619972
1159.9422754273908
1296.2804953425139
1452.985339618894
1647.637771149828
1860.4089546053067
1821.3495251447503
-560.2484296006018
-380.08915861666856
-88.79227820275062
129.232987390004
306.3214609986784
445.45574938760126
550.6994125328283
635.8167968242709
709.5075670916434
777.6425948832252
845.811060420458
919.3207038482365
1004.2799077993243
1108.4196504359595
1240.80930965544
1415.4341886286943
1647.922170856961
1928.4220572041042
2240.0998602274767
2453.1686623511005
-1619.1506473348065
-649.0061045338884
-187.48646436927373
85.160541302479
337.88865588573753
510.3160758480718
620.6895217039786
703.9174256604399
773.1002430850006
835.4294729365591
897.6747460466748
965.5348074515458
1045.9563428013328
1148.5810983497245
1286.2437282880423
1490.9390891867176
1811.3916378018057
2189.8911628058195
2701.7095231506773
3799.402652443616
-4312.588567495115
-820.4061175632858
297.79728715704306
528.4142683104492
695.4872405727677
784.9355998855292
826.052565202333
860.9834208516244
897.0370671835907
934.4059693202345
974.9128654972047
1020.3860252450374
1073.4628718617655
1138.2634600066617
1221.0957579813853
1350.903658754056
1587.502729539094
1945.8475158417448
3102.1402384325675
6786.45426791955
)
;

boundaryField
{
    movingWall
    {
        type            zeroGradient;
    }
    fixedWalls
    {
        type            zeroGradient;
    }
    frontAndBack
    {
        type            empty;
    }
}

// ************************************************************************* //
