/*--------------------------------*- C++ -*----------------------------------*\
| =========                 |                                                 |
| \      /  F ield         | OpenFOAM: The Open Source CFD Toolbox           |
|  \    /   O peration     | Version:  5.x                                   |
|   \  /    A nd           | Web:      www.OpenFOAM.org                      |
|    \/     M anipulation  |                                                 |
\*---------------------------------------------------------------------------*/
FoamFile
{
    version     2.0;
    format      ascii;
    class       volScalarField;
    location    "1.0000000000000002";
    object      T;
}
// * * * * * * * * * * * * * * * * * * * * * * * * * * * * * * * * * * * * * //

dimensions      [0 0 0 1 0 0 0];

internalField   nonuniform List<scalar> 
400
(
299.7234104589917
299.48259318025833
299.5253394348006
299.60151567233214
299.6498256683032
299.6892203773277
299.7265114258045
299.76233933687433
299.7997752352898
299.83810803297524
299.87575632695
299.9117296290882
299.9424532736842
299.9622511759642
299.96623800654635
299.9435329525557
299.8872233052204
299.800256771568
299.66957317634245
299.73179779625804
301.0119429280655
302.18518819067395
302.8786418098608
303.3069532831725
303.5381968083982
303.6486914456636
303.67172200865156
303.6369177217274
303.5678000949753
303.47848809183074
303.37833619724546
303.279366701633
303.1871473601403
303.10259321373843
303.02689490586613
302.9504296530697
302.8391469592943
302.6909873794616
302.32050233602814
300.9023805692306
300.5355800158129
300.9059854055369
301.54372457115363
301.9732997937563
302.2236702512811
302.3894331874333
302.4866949584467
302.5377318888694
302.56584723383315
302.5821222651347
302.59335989957043
302.60359293349035
302.60626161330794
302.5888000438063
302.5406329981368
302.4369610205323
302.2354379113714
301.9840531422238
301.6245818528491
300.4179314705161
300.3231126544968
300.18434166403017
300.8471261320661
301.29605671341693
301.56255114257885
301.7771465989401
301.93759426553174
302.0637225703883
302.1768998326301
302.28598678601577
302.3951662175718
302.5006607594278
302.5847193222576
302.6250197134204
302.60077182938454
302.4827839611291
302.2261591186305
301.92159296337115
301.56084493324494
300.26900233029806
300.3359433272633
299.9796804967355
300.7166161208977
301.2150163447203
301.518909925232
301.79379011110365
302.0259108012828
302.2332512221405
302.4393288726351
302.6485461028822
302.8599376727452
303.0625856816107
303.23038557939014
303.3280845592068
303.32809798084344
303.19138816786057
302.86543089140696
302.4819821908241
302.04496377292577
300.354236475854
300.3279176285979
299.71918605902863
300.5190996346091
301.0746966810735
301.43104623232864
301.783457552389
302.11333679258814
302.43513602969244
302.77068340055945
303.120759502078
303.4774012366925
303.82240844772446
304.1107469072818
304.2929142890969
304.32830894332176
304.163052103468
303.73708928866824
303.21940928471304
302.62920912568876
300.45769290824865
300.3346454683419
299.4775449051168
300.3784436248328
301.0166077719807
301.4473269588646
301.9082219800565
302.3704004884594
302.84959878337764
303.35967545794915
303.8971205050849
304.44818982870413
304.9744205685722
305.41232440550027
305.698066833491
305.77112892327
305.5645982837202
305.0015025948437
304.28992614021587
303.45090259361666
300.62330584759894
300.3696971786761
299.26736537219557
300.32242319689584
301.08077189529746
301.6176437889475
302.2245851683613
302.86389994991265
303.54512646163346
304.2796617856589
305.05394264331994
305.83963467072675
306.5767754012745
307.18362285863464
307.5785532118045
307.68747102072996
307.42246014290936
306.686560892826
305.73208951780293
304.5633005797807
300.86229218695166
300.42982663760444
299.05591992357495
300.3305975855619
301.252483141504
301.9321580684774
302.72747909078663
303.58742301976974
304.5165660704347
305.5211838264879
306.5695934808587
307.61130356502696
308.57485147491985
309.35663911558504
309.857715100225
309.99261917906637
309.6539448735031
308.7192507688252
307.4959462394273
305.95465127722497
301.1550204280304
300.518425042042
298.8303223982479
300.4101164774514
301.54336230998194
302.3980488517024
303.4196037076876
304.5385568474806
305.75276487847555
307.0549965402579
308.3962732300988
309.7070207937395
310.89270552708984
311.8395880218717
312.4376891783224
312.58861427483396
312.1639264607763
311.013638904899
309.52745082448706
307.6256058110132
301.48678138319735
300.6376619272656
298.56786277815837
300.56223376426
301.9546288681627
303.00748544172444
304.2808694941074
305.6808414051945
307.19187296516964
308.7993339611417
310.43674016392896
312.00799011073656
313.40237304765947
314.50271075583356
315.1900389033139
315.3567980022071
314.8418344468916
313.4646072996621
311.7440437051266
309.5653558969869
301.83465105948545
300.7942048531265
298.24125851033693
300.7922446717237
302.4788416319069
303.73267441699187
305.2648188408953
306.93741411445603
308.72858731170516
310.6229405120246
312.5290902930483
314.3303334297168
315.9183821246303
317.1742197803794
317.96405839808875
318.1667829516362
317.57614774348906
315.95184873175606
314.0149840068666
311.72113784236694
302.1520667753951
300.99085052006427
297.827101573844
301.131330235922
303.1191913669555
304.5411546047312
306.3028398859408
308.2019798735632
310.21755067987004
312.33441608790326
314.45664734898577
316.4638692348712
318.2393244172204
319.67403781614485
320.6196143045423
320.920614064276
320.2951949833742
318.3831503039704
316.1851288045335
313.9974509053927
302.39992216715467
301.20565648154513
297.3271811956381
301.67560536468926
303.92250435895465
305.419570612428
307.33005147766124
309.353670650633
311.48310829497063
313.72670190030516
315.9968035256891
318.18068770947
320.16386902631376
321.847555716275
323.0549948719619
323.58192179611723
323.02518080509157
320.78056247987996
318.12137123659943
316.174235424585
302.55537959315774
301.5220352440122
296.91588131857014
302.47342478540537
304.7814905029178
306.22826939582325
308.18917682891185
310.21582015372405
312.34386757800706
314.613308686243
316.9519602120311
319.28348405586627
321.5185464430217
323.5607712308096
325.20324013519604
326.1866432384459
325.9593028736586
323.45968816459856
319.8951351293152
317.80268208215585
302.5714108871067
301.90170507093035
297.12973749898435
303.7540141693219
305.65363126213134
306.96762601187993
308.94872797284876
310.8942995720274
312.9260648123192
315.12433842280586
317.4403481888811
319.84820980752073
322.3128869147142
324.74078379237153
326.9355329058866
328.6199785223219
329.1245008703363
326.72150304676506
321.7650079105146
318.49950863731436
303.22202605441265
300.72685320603046
299.18964638367083
307.47793366208566
308.42523756503044
309.19917022893503
310.8414497882265
312.43518359792733
314.1864855184743
316.16722932359875
318.31662154055863
320.62182732774966
323.0922560590284
325.68220438113235
328.28067626512546
330.65545662753567
332.11329115022147
330.48082950736756
324.0899358610964
317.3827841730735
306.46995589491326
301.61396731822146
307.40515787662764
312.54908785989096
311.56384537505727
311.7509117613055
312.73377423000295
314.07593539054943
315.83230666901886
317.85925801436355
320.05149269539277
322.3946993620325
324.91435368938056
327.64540459147855
330.6475015451744
333.7513919845909
336.33780483068244
337.4773680397023
330.82362807465273
311.9105885060333
308.13995673544235
319.2096946762494
329.8839863675002
310.2539306582001
306.15635221881064
309.27340421805764
312.6022792641396
315.77093336535705
318.89647011938695
321.79197128628556
324.45747113431355
327.00748463879466
329.58278839494443
332.39247042624964
335.76659935974874
339.8218051524816
344.41987731238225
350.97986306428476
348.1412263271206
306.85170998992487
307.79947749605157
287.2830430290878
350.4539705520385
342.9454659168647
339.24222447109196
340.4806022258917
341.0835187898405
341.3208457974098
341.6759511483914
342.09341691307264
342.53261897958015
342.9871114306877
343.40976337127887
343.7763703678727
344.1056253952934
344.2298202691249
343.93895950938924
345.34133223543705
342.9561361415897
314.2213606626066
365.53449470644733
)
;

boundaryField
{
    movingWall
    {
        type            fixedValue;
        value           uniform 350.0;
    }
    fixedWalls
    {
        type            fixedValue;
        value           uniform 300.0;
    }
    frontAndBack
    {
        type            empty;
    }
}

// ************************************************************************* //
