/*--------------------------------*- C++ -*----------------------------------*\
| =========                 |                                                 |
| \      /  F ield         | OpenFOAM: The Open Source CFD Toolbox           |
|  \    /   O peration     | Version:  5.x                                   |
|   \  /    A nd           | Web:      www.OpenFOAM.org                      |
|    \/     M anipulation  |                                                 |
\*---------------------------------------------------------------------------*/
FoamFile
{
    version     2.0;
    format      ascii;
    class       volVectorField;
    location    "1.0000000000000002";
    object      U;
}
// * * * * * * * * * * * * * * * * * * * * * * * * * * * * * * * * * * * * * //

dimensions      [0 1 -1 0 0 0 0];

internalField   nonuniform List<vector> 
400
(
(0.00013928683141372773 0.002938004809247996 3.6730509551079005e-20)
(0.00025619834309667164 0.005213803134623957 1.6471474211328924e-19)
(-0.0008712492680569854 0.006218282999004486 7.003907810477417e-20)
(-0.0028522686481404196 0.006682428520383487 1.0905490632263315e-19)
(-0.005175811638217809 0.006842241239160334 -2.299312963510504e-19)
(-0.007543079996240026 0.0068117881856354515 -7.599771279946109e-19)
(-0.009718110063056472 0.006640152368491325 -8.6101963706522e-19)
(-0.011513372656840916 0.006376637976600617 -7.192033832258243e-19)
(-0.01279484449787366 0.006046718507953965 -9.644797729494072e-19)
(-0.013477903851468258 0.005677845828431633 -1.6293538212842253e-18)
(-0.013511971037373739 0.005290573136157958 -1.829604248043163e-18)
(-0.012887349813061865 0.0049103229218824505 -2.682917554766627e-18)
(-0.011639292021130575 0.004563593022253185 -3.8664099568161334e-18)
(-0.00984814435774268 0.004286781003388728 -4.836293681929897e-18)
(-0.007657973997468016 0.004119024584761839 -5.259832147253336e-18)
(-0.005285806159956213 0.004113039503165564 -5.5482992201738355e-18)
(-0.003013018887455292 0.004282468802457517 -5.182277685993111e-18)
(-0.0011695909528155358 0.004582999119758265 -3.9473733883760464e-18)
(-6.0323812626128164e-05 0.004762477110100346 -2.838128620493103e-18)
(0.00039714281404665356 0.003451730273783061 -1.1240256291702136e-18)
(0.000259858925555152 -0.00046492771386230566 3.567093482557804e-20)
(-0.0013433662288651776 0.0011569925599488066 1.0015852920570102e-18)
(-0.004671243328710747 0.0026671994268682255 1.5426190954378344e-19)
(-0.009357258237060469 0.0035795419752933833 -1.053473399698664e-19)
(-0.014747875722352536 0.003941298656833264 -6.807108424942726e-19)
(-0.020251686869589277 0.003815534481932214 -2.7574269027418536e-18)
(-0.025320825804312393 0.0032909491278650307 -3.1102696456450333e-18)
(-0.029511962431904223 0.002468912884931714 -1.7663064871703298e-18)
(-0.03250813805459322 0.0014391147777698707 -2.4477084986556502e-18)
(-0.03409669621276929 0.00028063271105398913 -5.352472249944498e-18)
(-0.03416031748919343 -0.0009305029691935178 -4.9096329071105465e-18)
(-0.03268131435880949 -0.002117491233224214 -7.816310613543128e-18)
(-0.029749211026739393 -0.003193303466650477 -1.1951418791023142e-17)
(-0.02556364471955162 -0.004059117760084201 -1.5217463406933903e-17)
(-0.020449221295224116 -0.004599257854162326 -1.5104367249000232e-17)
(-0.014879433283047932 -0.004691965987912657 -1.7356278981430692e-17)
(-0.009424132319927392 -0.004249018001505322 -1.6433874354075127e-17)
(-0.004633658023197137 -0.003240271601167899 -1.202423696685103e-17)
(-0.0013985070501080236 -0.00167416368483621 -9.494273575723825e-18)
(-0.0005967948422461472 -0.00021433369395510243 -3.946541733517007e-18)
(-0.0008146553440012641 0.0005324171101579263 1.28108396704447e-18)
(-0.003119721409699884 0.004176539727840737 3.490762593594965e-18)
(-0.008398357666227846 0.007581768576957359 1.962623005374733e-18)
(-0.015482438720009402 0.009702141046740543 2.444890045555675e-18)
(-0.02334536424785381 0.010535895342187414 1.1287745385113927e-18)
(-0.0312677888252194 0.010183247953193947 -2.1776055565535025e-18)
(-0.038518558374180535 0.008838231807630516 -4.178069615351219e-18)
(-0.04449319004125446 0.006733527245224007 -4.633447185046302e-18)
(-0.04875427964973302 0.004091338787681493 -5.9103358311017296e-18)
(-0.051010527453927444 0.0011178637712744531 -8.09236143795888e-18)
(-0.05109908108214913 -0.0019894517846254325 -9.158491864186656e-18)
(-0.04899590455955205 -0.005029734996340512 -1.180204552092401e-17)
(-0.04482423891476863 -0.007783380408100929 -1.6669943510929406e-17)
(-0.038853675315196234 -0.010002485837143875 -2.0763414278246422e-17)
(-0.03152329789736183 -0.011420777605624937 -2.2856436283841573e-17)
(-0.023465969086920904 -0.011771553217955555 -2.3872051887918732e-17)
(-0.015442535559917267 -0.010857368870491591 -2.2557973436211687e-17)
(-0.008165079851416452 -0.008626439609135781 -1.868474912906666e-17)
(-0.0027668952643524324 -0.005196691797359448 -1.3227230804717375e-17)
(-0.0006589754883864331 -0.0012976435263678011 -5.1723390180311856e-18)
(-0.0013011435587384481 0.002882476308117047 2.3207036213078554e-18)
(-0.004381399330771896 0.009859224185458575 4.360563268439712e-18)
(-0.011669008000237516 0.01563481650888288 1.119725388750706e-18)
(-0.021107079791240737 0.01918142815290556 2.1436387765667043e-18)
(-0.031278348985217766 0.020479218262374664 6.156655243962125e-19)
(-0.04137662595531936 0.019713543787639308 -2.9797068070051607e-18)
(-0.05052799945310545 0.01720878460793681 -7.48216925980635e-18)
(-0.05802116535086521 0.01336943412698713 -6.9364923347371654e-18)
(-0.06335021796533012 0.008580133295997277 -8.599655564497101e-18)
(-0.06617240361439515 0.0032047531794891695 -1.2309732736447415e-17)
(-0.06629918926535616 -0.0024065258246488805 -1.1996524957974113e-17)
(-0.06369902760174204 -0.007900828297872824 -1.3477356068656435e-17)
(-0.05850419013734275 -0.012889329098496785 -2.1693513038274832e-17)
(-0.05102529260279015 -0.01694293403515905 -2.8523817846641255e-17)
(-0.04177028835678866 -0.01960396925645898 -3.1907133867151356e-17)
(-0.03148756224020398 -0.020416849921908477 -3.298587688563865e-17)
(-0.0211093387260788 -0.01904855662235916 -3.1508862631000357e-17)
(-0.011519062670261076 -0.015376144285617281 -2.7282498310514148e-17)
(-0.004187666727073173 -0.009578735196230303 -2.0102025726623707e-17)
(-0.001091188232172821 -0.0027403225922844306 -8.794732687981063e-18)
(-0.0016416794253739082 0.005458304632781025 4.483049520114709e-18)
(-0.00561270810360324 0.01634197012885082 8.45928899628558e-18)
(-0.014878353381100138 0.024820016887236156 3.2594236158341254e-18)
(-0.026637613860531362 0.029880414391328162 3.869414865714937e-18)
(-0.039081715104363236 0.03154636251826611 2.263320361921975e-18)
(-0.051281489016199826 0.03013372053641759 -2.5914349685415265e-18)
(-0.0622360876860828 0.026161768052788067 -8.009409560006425e-18)
(-0.07114637388465461 0.020215690786042274 -7.582140501878138e-18)
(-0.0774682103935628 0.012872948875734959 -9.633034216484482e-18)
(-0.08083094814252316 0.004664677119918894 -1.4050294933579194e-17)
(-0.08102911547159052 -0.003897979996992042 -1.3468903920992393e-17)
(-0.07801672599171311 -0.01229456677099283 -1.649517580355652e-17)
(-0.07192034653786196 -0.019957318000815995 -2.487573485310504e-17)
(-0.06306142384024224 -0.02625771638821629 -3.0558778398419987e-17)
(-0.05198265327175823 -0.030504423355022924 -3.428640463213913e-17)
(-0.03953221683556945 -0.032023128734640464 -3.6020045660291605e-17)
(-0.026793010742014192 -0.03026635306323413 -3.474483691218654e-17)
(-0.014815546371655608 -0.024975403165945837 -3.0683439792615306e-17)
(-0.005499037455343148 -0.01626197352764465 -2.260139148432089e-17)
(-0.0015489722966671052 -0.0053154112610648094 -1.0106401428875964e-17)
(-0.002040899033664589 0.008718626452763585 3.8249827770170936e-18)
(-0.0069256218317806624 0.024516273848089368 1.1990701011869663e-17)
(-0.01825755176931548 0.03626678026781754 7.860106794474991e-18)
(-0.0324562447729445 0.04300923776107538 7.69663692841684e-18)
(-0.04728060429762289 0.044944979406316324 7.98961753199601e-18)
(-0.06164206900192651 0.042631391667353996 1.5083414721795052e-18)
(-0.07441515776002895 0.03682936281223203 -5.347271833265191e-18)
(-0.08474427192718402 0.028376516850426383 -6.018109279896831e-18)
(-0.09205945845878945 0.01804484040213178 -8.33783660720772e-18)
(-0.09598796375370897 0.006553165217544776 -1.2368597688429768e-17)
(-0.09630897973980591 -0.005426547099391269 -1.1445988550177534e-17)
(-0.09295687325217349 -0.017207205203543144 -1.3396975048206514e-17)
(-0.08603573571529755 -0.028039955923939357 -1.9952931248507347e-17)
(-0.07584076129211455 -0.03705997165849804 -2.4326365348932722e-17)
(-0.0629288380809477 -0.04332521135103264 -2.859092716914718e-17)
(-0.04821705931069537 -0.04585275773150847 -3.3408655476259375e-17)
(-0.0329436835462866 -0.043816583753897916 -3.277059108520804e-17)
(-0.01836104135684559 -0.03672339558525027 -2.879349878177877e-17)
(-0.0068515768120534365 -0.024549380032458594 -2.130518778756281e-17)
(-0.0019445980881717187 -0.008532796118224767 -1.0485176741397591e-17)
(-0.002490568651937538 0.012726721109871563 2.8431143450942176e-18)
(-0.008400604450193342 0.034529604168965874 1.000732387363317e-17)
(-0.02205009101180697 0.05014227006075459 8.717696130305029e-18)
(-0.038955690424141036 0.05872145422906331 1.1544043686562348e-17)
(-0.05635263544198044 0.060788289212700394 1.2692007393686723e-17)
(-0.07300391976815943 0.057261172008827646 7.277395173774673e-18)
(-0.08766316158793164 0.049238684911141174 3.102270361752001e-19)
(-0.09943690751040332 0.037849367861198205 -2.88265254957545e-18)
(-0.10777599246521405 0.02410505799002273 -5.228245311918083e-18)
(-0.11230893307756647 0.008896959054573291 -7.013598191457279e-18)
(-0.11282113079133252 -0.0069411024926248985 -6.6712489723483225e-18)
(-0.10922205267300808 -0.02258716273422664 -4.6377455766857815e-18)
(-0.10155516909623756 -0.03709766652307923 -1.1711593547093868e-17)
(-0.09006805177035941 -0.04937804005706865 -1.500824615958655e-17)
(-0.07527685491343987 -0.05816782501951737 -1.6842203493098976e-17)
(-0.05814089382191908 -0.06210975583354333 -1.878567846515889e-17)
(-0.040056807788626456 -0.05998055512038528 -1.8041944182391922e-17)
(-0.022493522229397413 -0.05092142221777648 -1.471120662177775e-17)
(-0.008441818327187349 -0.03465151396668328 -1.0787770997789968e-17)
(-0.002408502057846341 -0.012454142148041141 -4.504724849389538e-18)
(-0.003040103309783008 0.017558237353057057 9.89263364761044e-19)
(-0.010175458074522078 0.04654841751780415 1.1843349816312332e-18)
(-0.026520755447528705 0.06662621992898762 6.44283817420355e-18)
(-0.04647435238906974 0.0771441339445182 9.315277560281668e-18)
(-0.06667177770184701 0.0791238456351559 9.675195524730325e-18)
(-0.08571615629442221 0.07398789711966637 6.8989447912203955e-18)
(-0.10228437347480554 0.06329621778351222 2.6812227267669687e-18)
(-0.11548706071420499 0.04852764439959276 -4.891588891854653e-19)
(-0.12483019889194298 0.030956193186982277 -2.6825071255900517e-18)
(-0.12999366731318324 0.011641320159495127 -3.956310005611136e-18)
(-0.1307812431355322 -0.008476516881426376 -4.190031102165275e-18)
(-0.12706654497387074 -0.028440914515571104 -4.274550640689133e-18)
(-0.11880943852694488 -0.04716144012099122 -6.49235863671375e-18)
(-0.1061473069099752 -0.06330382780696714 -7.016349974257543e-18)
(-0.08949623644507189 -0.07524224203632615 -5.9293546966228866e-18)
(-0.06980557622706533 -0.08114699502668864 -8.363736799700289e-18)
(-0.04858503079868495 -0.07923700533768684 -7.65975192408365e-18)
(-0.02754474305221856 -0.0681115221149966 -2.3149973501488188e-18)
(-0.010425571984245489 -0.04703804883441674 -3.934804974208411e-18)
(-0.0030066849351946035 -0.017290982895806092 -1.7924192910406847e-18)
(-0.0037510572344039974 0.02342623617753288 1.0340841107309189e-18)
(-0.012370895177608676 0.06098819325090465 2.8495254116919363e-18)
(-0.0318872567106766 0.08615419475633086 7.0089847317681e-18)
(-0.05526170401980828 0.09860815843978993 1.0443732018613593e-17)
(-0.07841406125585414 0.10013351159170072 1.102684027519476e-17)
(-0.09984163068138026 0.09288019467757141 8.75873566112917e-18)
(-0.11819304020433223 0.07899239101235178 4.453481952074312e-18)
(-0.132660869232572 0.06039412799825221 1.1211830128150669e-18)
(-0.14288201269780465 0.03861573193739426 -1.0576239806116566e-18)
(-0.14864780323693702 0.014856498136766105 -2.140457458320112e-18)
(-0.1497938170210866 -0.009872284760915038 -2.1882422515254985e-18)
(-0.1461575948319988 -0.034563307582351634 -1.8846649330672686e-18)
(-0.13759280598844 -0.05801965589585681 -3.3729674527365315e-18)
(-0.12404925168104593 -0.07868292279915891 -2.6981189264729458e-18)
(-0.10574369195418278 -0.09454042388493772 1.377452528738318e-18)
(-0.0835101413878391 -0.10315260192270065 -3.441381256642244e-18)
(-0.058904018980249766 -0.10199438564018762 -3.125666401479126e-18)
(-0.03383211965578694 -0.0888464819319417 2.3348127074160107e-18)
(-0.012969660555115257 -0.06223204352000277 -1.0885250623298374e-18)
(-0.00380307456635555 -0.023292901923791354 -7.724682915335332e-19)
(-0.004684979601308843 0.03059963487661572 2.0376391932242716e-18)
(-0.015103127276089444 0.07834512409092816 6.371937617631599e-18)
(-0.038327147242328434 0.10916271506085737 9.632221928592288e-18)
(-0.06542874465671028 0.12334024319216336 1.606449732226322e-17)
(-0.09149379213048507 0.12382288607986236 1.717026667493232e-17)
(-0.11501764063335648 0.11376503940860015 1.4265707169005102e-17)
(-0.13473932278668382 0.09608980491685819 6.0512869484030754e-18)
(-0.15004958258367837 0.07321600872526224 1.9383475809009035e-18)
(-0.16082913691427567 0.0469411612144254 -4.340243685716045e-19)
(-0.16703484147984463 0.018550255585100442 -1.4767662363413077e-18)
(-0.16859729799539666 -0.010961322304278483 -7.780481192631174e-19)
(-0.16532817717926224 -0.04064135294510349 2.185783957010347e-18)
(-0.1569221005457187 -0.06927115295263885 -2.923992643720705e-18)
(-0.14307457989661762 -0.09513589610332177 -3.3827083240788538e-18)
(-0.12365820818570553 -0.11580836575004944 -1.5835150076197362e-18)
(-0.0992322050873281 -0.12814370355687524 -4.905940691902251e-18)
(-0.07123045404532222 -0.12859323415156387 -4.9343698598734184e-18)
(-0.04163652192933255 -0.1137494790818504 -2.006839507931568e-18)
(-0.0162536595880311 -0.08090784864127545 -2.338605339508974e-18)
(-0.00488770966538364 -0.03080392605098924 -1.1581084146883301e-18)
(-0.005944455832693742 0.03942831415829636 2.2837970043365784e-18)
(-0.018519864234828223 0.09918598357541128 6.676687250379131e-18)
(-0.04597715762291786 0.1360258208776436 9.655074516256682e-18)
(-0.07687856482400861 0.1513483401075747 1.2165559136355114e-17)
(-0.10540914364898103 0.14986209446963256 1.3380172740754006e-17)
(-0.13027075547337447 0.13611414255856177 1.0764367039018007e-17)
(-0.15048237021164365 0.11398793037832154 4.927477714956835e-18)
(-0.16581261528280813 0.08646811235179087 1.5967771124245072e-18)
(-0.1765025740871071 0.05559052727344166 -8.953881565718667e-19)
(-0.18279427974554815 0.022629824139898932 -2.5670835851592738e-18)
(-0.1847685632569968 -0.011575599514077696 -2.134488897002321e-18)
(-0.1822281248432357 -0.04622882378793616 -2.996482417816289e-18)
(-0.1746994291542409 -0.08025720592454375 -7.493705202729439e-18)
(-0.16152137290596905 -0.11190703185181808 -7.323762438733247e-18)
(-0.14207253981618828 -0.13839224022088553 -1.532182605725019e-20)
(-0.11638956162561931 -0.15575683945150032 -1.0249286500159941e-17)
(-0.08549828590138225 -0.15914366579505154 -1.0767241557521065e-17)
(-0.05117647206552888 -0.143424427658363 -5.252684725927202e-18)
(-0.02048839821141859 -0.10389611695552121 -5.438944563271155e-18)
(-0.00639610926779558 -0.040303009408007816 -2.8491290043273013e-18)
(-0.007718606876939894 0.05038724158897768 2.8931032984557183e-18)
(-0.022829823535595963 0.1241380526360579 8.17652307435434e-18)
(-0.05490557095496097 0.16692146265723296 1.0877108039096191e-17)
(-0.08919555769886188 0.18220893474177483 1.0513007387194178e-17)
(-0.11903251556391087 0.177372571192339 1.4754450830431976e-17)
(-0.14373555746014702 0.15881417083811467 1.1931636180272845e-17)
(-0.16289044178023734 0.13156797276543605 2.183610659160184e-18)
(-0.17684454145325917 0.09921327135134451 1.0094919080760958e-18)
(-0.18638536159867244 0.06391814892892925 -1.855103045769025e-18)
(-0.1921450887888951 0.02681937827538741 -6.109278649518683e-18)
(-0.19439689097541193 -0.011530267313839907 -2.5105626553147547e-18)
(-0.19298893408377263 -0.050706110751620646 -4.4629448711385796e-18)
(-0.18730585467790717 -0.08995940457379256 -1.7028286401046217e-17)
(-0.1762742637118696 -0.12769772259153434 -1.9215399651856343e-17)
(-0.15859546406674854 -0.1609475568607287 -1.30208462360479e-17)
(-0.13349487689603237 -0.18493038840710802 -2.3457398589006746e-17)
(-0.101149286137055 -0.1931977052330946 -2.3133340203635675e-17)
(-0.06254066943634026 -0.17821876196452122 -1.2074297554656122e-17)
(-0.025951785212347908 -0.13210871354809245 -1.0627591838637015e-17)
(-0.008563822730868788 -0.05242274763550504 -8.56758253597759e-18)
(-0.010377875950831776 0.0641319577903878 4.131147999870027e-18)
(-0.02837402238020728 0.1537920097690525 1.2217441979663305e-17)
(-0.06506926332648316 0.20156519605015902 1.6124133514122493e-17)
(-0.10140775232203099 0.214745989711689 2.3001276804129003e-17)
(-0.13027589896424108 0.2046116448224209 2.375626912544231e-17)
(-0.15227945841241275 0.17993104292460887 2.2007737091662586e-17)
(-0.16793902902455826 0.14701685273319956 9.309153083518508e-18)
(-0.17846275720489072 0.10995024172439716 2.7665455711831234e-18)
(-0.18531624710526765 0.07087766645998972 -7.464201320024247e-19)
(-0.18957080006553387 0.03063178153624564 -1.3964626249460801e-18)
(-0.1917858178132045 -0.010714557213129411 1.5847908915652326e-18)
(-0.1919161424254894 -0.053303912666862144 3.867022334348045e-18)
(-0.18923848563400072 -0.09695381754596127 -3.793497298340861e-18)
(-0.182313974215229 -0.14052836785978887 -7.97773809516335e-18)
(-0.16908122750093996 -0.18117238231372937 -9.294267169404513e-18)
(-0.1476388042912344 -0.21349757978761907 -1.2662110700601122e-17)
(-0.11672922286177989 -0.2292926969458061 -1.2670649626195118e-17)
(-0.07553870618838225 -0.2178421510697566 -9.331871107083467e-18)
(-0.033034334643106046 -0.16639177925738127 -7.13604128862157e-18)
(-0.011842398135810676 -0.06800561395000604 -3.2777592163242847e-18)
(-0.014598839387078255 0.0817558022916096 5.15753827014502e-18)
(-0.03563842427144681 0.1885785804824839 1.6331975303280965e-17)
(-0.07604653249837297 0.23872759315608147 1.9210892328629615e-17)
(-0.11151727066379076 0.24649032632414009 2.6308205775244003e-17)
(-0.13551798119040018 0.22854859619848825 3.2238236170557237e-17)
(-0.15094348720675552 0.19642561538507286 2.789157901475405e-17)
(-0.1597123774594259 0.1576544376791526 1.2705413868713928e-17)
(-0.16408279772223394 0.11656378163960635 2.8181883784537924e-18)
(-0.1662592917889838 0.07501318820020371 -1.867490169504462e-18)
(-0.16776488093045616 0.03329471304306683 -4.369460384895825e-19)
(-0.1694256546985083 -0.009162660306900626 4.282940836991404e-18)
(-0.17135862782409486 -0.05322693858439412 1.408914565699647e-17)
(-0.17288336688443556 -0.09951499694854969 3.745255974083931e-18)
(-0.17235251430912837 -0.14771178789086295 -1.500371821160716e-18)
(-0.16703275345690272 -0.19558151139013608 -4.368584271716037e-18)
(-0.153760863569024 -0.23766522333752393 -6.425992834159949e-18)
(-0.1292055743813155 -0.26418415108437776 -6.826034526076145e-18)
(-0.0892842776872653 -0.2606622975906074 -5.7305224540462656e-18)
(-0.04222060092420681 -0.20738315957416106 -4.174671683743025e-18)
(-0.01701346543794075 -0.08849652548396743 -1.6373972897845125e-18)
(-0.02137050557202505 0.10531673021138666 6.7056801032485275e-18)
(-0.04527153383977757 0.22837426419876675 1.2818003021948248e-17)
(-0.08649107505899065 0.2751455056894553 1.921154170929612e-17)
(-0.11550046203838049 0.27264995826380956 2.777081093098174e-17)
(-0.12860762061824757 0.24419169713492403 3.48194092040502e-17)
(-0.1321772543656231 0.20383581922425342 3.0140151233495525e-17)
(-0.12984123407294887 0.15988805221754182 1.3384709799016759e-17)
(-0.12497685409134979 0.11638654222239954 -1.264064254291981e-18)
(-0.12038463955347296 0.07449528318225922 -9.381799426388266e-18)
(-0.11782090265492207 0.033766806494721975 -2.3402405601007743e-18)
(-0.11826742129750584 -0.0071162695990025105 1.6681188007369235e-18)
(-0.12203032338794184 -0.049817873415985224 8.990386559352607e-18)
(-0.1286511251830123 -0.09588740912666005 6.1254829550316274e-18)
(-0.13664169832535802 -0.14612181654186895 2.216305464340073e-18)
(-0.14301939170296718 -0.1995353390567581 -6.949510603726409e-19)
(-0.14359885853385146 -0.25158331811181217 -2.547232213312103e-18)
(-0.1327540174264389 -0.2918577990020532 -3.2659332514664297e-18)
(-0.10149504410263852 -0.3023561151370739 -3.0452629939152372e-18)
(-0.054134151501176765 -0.2546253748367477 -2.233815931567641e-18)
(-0.025200711742171183 -0.11629724957863052 -8.462723533968789e-19)
(-0.03179283186781818 0.13704360192036286 3.545153281203372e-18)
(-0.05769631127347106 0.2710183320194465 1.0771573894355402e-17)
(-0.09263569921452708 0.30504662512146696 1.783281444699871e-17)
(-0.10525713490899245 0.286571021735549 2.810890139203211e-17)
(-0.09906099202005433 0.24546028370965692 3.4750196036731226e-17)
(-0.08460620055082464 0.19734641735935227 3.041772609575925e-17)
(-0.06699510098544212 0.15027275770105591 1.4428161636169313e-17)
(-0.05032796405660708 0.10711382106023455 2.8485261026329234e-18)
(-0.037448512744048076 0.06788183494921125 -2.3465998476902034e-18)
(-0.029908605747405587 0.031229746272940177 8.855430041935575e-20)
(-0.02857621861234183 -0.004872391442143882 5.542165561863616e-18)
(-0.03387908867856196 -0.042760716445064 1.3668602173606119e-17)
(-0.04576082485837178 -0.084828620820314 9.511785388755712e-18)
(-0.06337109917293507 -0.1330972077707981 5.016305540977567e-18)
(-0.0843217581021601 -0.1883794285034996 1.845406826844754e-18)
(-0.10438890759193875 -0.24842192548674863 -1.1583638626926387e-19)
(-0.11650516816392514 -0.3040909190667142 -1.0901391389412322e-18)
(-0.10611332641582592 -0.33508608659317946 -1.3224268361280684e-18)
(-0.06836811266852161 -0.304236360669411 -1.0482996005070455e-18)
(-0.037687108751814295 -0.15319966361194615 -4.0362254825280716e-19)
(-0.04353217972186838 0.17959954421437938 1.3419137881135462e-18)
(-0.06743301253881716 0.3097969241542417 5.694692520792952e-18)
(-0.08223902456535036 0.31810307703844465 1.4210837736836558e-17)
(-0.06450115350677804 0.27954210442389427 2.5004512648532155e-17)
(-0.0298981927489908 0.2257287553691662 3.2054985060839585e-17)
(0.0077518883348222795 0.17247525477250178 2.831927424665661e-17)
(0.04296026397431836 0.12622522827839722 1.3417269774347989e-17)
(0.07198798988230665 0.08744870057424002 1.4255513323805947e-18)
(0.0929543733966806 0.05454140454702647 -3.1263667303016985e-18)
(0.10521131694283864 0.025283644235485413 -3.7943546880735954e-20)
(0.10841206114589165 -0.0028101565803104033 6.586376771768921e-18)
(0.10216372130711701 -0.03238410334596471 1.9913610249088306e-17)
(0.08601187451129311 -0.06625958234919738 1.1739543399565845e-17)
(0.05968882185735851 -0.10738141687823376 6.5985056577841545e-18)
(0.02389018621320199 -0.15850275295034583 3.3072665237367995e-18)
(-0.018720658167081027 -0.22103002717302084 1.2710427395515425e-18)
(-0.061449097214119126 -0.2897088906414836 1.480076088062294e-19)
(-0.08672547116458916 -0.34508911237570933 -3.2776725932974444e-19)
(-0.07628733955191248 -0.3480159079678726 -3.7553859826789363e-19)
(-0.050343675999246745 -0.2035694133706661 -1.5902373859019813e-19)
(-0.03588068564745663 0.24738527529669857 -1.212575745444199e-18)
(-0.0539177361962664 0.33103497964496725 1.1830494202641388e-18)
(-0.024579132808538604 0.2869091529961121 9.15424099468322e-18)
(0.03838920855360138 0.22922185887321472 1.8877245951730284e-17)
(0.10545740349892718 0.17100752040950704 2.5965791961975775e-17)
(0.16613654919943222 0.12169882896376266 2.5737191413201523e-17)
(0.2162901863110131 0.08427806064201164 1.0875366615182662e-17)
(0.2540241562419829 0.05604020454137311 -7.854492614033556e-18)
(0.279803476270092 0.03386377906106905 -1.2443603372320212e-17)
(0.294603809523782 0.015222943835905358 -3.120224014705186e-18)
(0.2989263608143015 -0.0021539740033449726 2.7528314506755576e-18)
(0.29259470761404316 -0.020472163496719195 1.171169527777041e-17)
(0.2747099702875143 -0.04215658326452169 1.0326176415835377e-17)
(0.243678981615207 -0.07011667425772757 6.677562884742171e-18)
(0.1974633212938889 -0.10817393653377608 3.735864604804752e-18)
(0.13564118006156275 -0.16120725982010714 1.81599916958535e-18)
(0.062451308754548226 -0.23016883943704627 7.025172756874799e-19)
(-0.011812226020257877 -0.30540724619319826 1.4967759653702075e-19)
(-0.05610561127576352 -0.3683053546388606 -4.437667505549828e-20)
(-0.03714536301203696 -0.28199547333536396 -3.782392259834037e-20)
(0.044303001233257776 0.295380704576048 -2.4859011932055934e-18)
(0.0210929377742205 0.30024598053528734 -8.657525456918877e-18)
(0.1350273191976812 0.19847823125081557 3.1104351335442237e-18)
(0.25929158978571526 0.13466020651224264 1.2922224789444036e-17)
(0.3501020941443228 0.08888906397491293 2.1507973056459332e-17)
(0.4192092414055409 0.05655018866606623 2.248913854412867e-17)
(0.4705569985365228 0.035892326564179684 1.1089366216624186e-17)
(0.5058177242730258 0.0224425022011698 1.1943772098730513e-18)
(0.5284367428860938 0.012901416410264531 -2.6304541491114814e-18)
(0.5410226316318452 0.005380695555150753 -4.2813883180724353e-19)
(0.5447563823444924 -0.0014236600017724212 4.85561033206928e-18)
(0.5397089241921086 -0.008642386236384613 1.739838802290392e-17)
(0.5248991839207833 -0.01754011259906741 1.0850599775544014e-17)
(0.49799593948410265 -0.029922136552427998 6.011096980421534e-18)
(0.4545591762727356 -0.04889058046846974 3.2096882374551116e-18)
(0.39037121935974783 -0.08009393250482619 1.6139544588551685e-18)
(0.302135583412413 -0.1302589114286855 7.233370108744023e-19)
(0.17057959678144136 -0.2049770401110277 2.6237031647914493e-19)
(0.03133506038149637 -0.31511211890752816 6.346604583972705e-20)
(0.05647235479469701 -0.31642160520924545 6.0824857342544575e-21)
(0.35057888670822324 0.0552183068534518 -1.8079520515936397e-18)
(0.38143407166269166 0.15602533366511095 -8.973884525613866e-18)
(0.542884714349448 0.12714896544077187 -2.531757836872355e-19)
(0.6789478539837589 0.08536805152930875 8.611527039013406e-18)
(0.7468838525862724 0.05067606924651662 1.573089797975761e-17)
(0.7854021419509398 0.029370107568099307 1.630335675502825e-17)
(0.8099258021040813 0.018134419214467203 6.878270950600474e-18)
(0.8247474596687447 0.012190595029210317 1.8506580075167268e-18)
(0.8333964528103889 0.008797622824602617 -2.8377709979672438e-21)
(0.8378848950669735 0.006542257923741502 3.9131637396401685e-19)
(0.8388933634725139 0.004647196985391782 2.9798496879018465e-18)
(0.8364379159926183 0.00259677175149197 1.1442637572025443e-17)
(0.8300024899178878 -0.00014392987508941494 6.000771755565711e-18)
(0.818215758226186 -0.004550343206218451 2.797723008067318e-18)
(0.7977696013178843 -0.012470192131981046 1.3530725160886364e-18)
(0.7641139163420971 -0.02794862409182629 6.638819095212519e-19)
(0.7076989685444652 -0.05898516860198906 3.072328013999883e-19)
(0.5818361753448207 -0.10555253896724913 1.2289317623864125e-19)
(0.3978609354092314 -0.14486402260451628 3.800913084483307e-20)
(0.3950231933483324 -0.06838134652675965 6.870420518599882e-21)
)
;

boundaryField
{
    movingWall
    {
        type            fixedValue;
        value           uniform (1.0 0.0 0.0);
    }
    fixedWalls
    {
        type            noSlip;
    }
    frontAndBack
    {
        type            empty;
    }
}

// ************************************************************************* //
