/*--------------------------------*- C++ -*----------------------------------*\
| =========                 |                                                 |
| \      /  F ield         | OpenFOAM: The Open Source CFD Toolbox           |
|  \    /   O peration     | Version:  5.x                                   |
|   \  /    A nd           | Web:      www.OpenFOAM.org                      |
|    \/     M anipulation  |                                                 |
\*---------------------------------------------------------------------------*/
FoamFile
{
    version     2.0;
    format      ascii;
    class       volScalarField;
    location    "7.049999999999983";
    object      p;
}
// * * * * * * * * * * * * * * * * * * * * * * * * * * * * * * * * * * * * * //

dimensions      [1 -1 -2 0 0 0 0];

internalField   nonuniform List<scalar> 
400
(
0.0
-9.650584227070896
-20.337241656811575
-27.554384818936906
-30.41347057957115
-28.385421032468727
-21.523697622578318
-10.439142087675751
3.9407616023305696
20.46138714321288
37.800328460819784
54.54369921810588
69.26951324350861
80.66445470353996
87.6685664967589
89.6775358460829
86.89244921133643
80.45606905438889
73.03905061526928
70.55968854355089
71.92785154355816
68.8944131345449
64.34852766821656
61.13805491466306
60.25462840966054
62.41681589635153
67.75886101666038
75.96265864923004
86.45984435742199
98.47093082628501
111.06922813079925
123.2531109293486
134.02399962715563
142.4952119007836
147.99801607017048
150.12820856772657
149.03385221725347
145.65304933623395
139.59639806238195
130.39720418234006
133.41842619605177
123.61450887961891
118.22303988755566
115.41501403514086
114.55859111960032
116.55558778367919
121.39201415726289
128.7060580538905
138.0220092536129
148.6804365014602
159.8867921036764
170.77275660481328
180.45521575291284
188.13676713709086
193.19590853428699
195.14535409385357
193.9520358403512
190.7017414768633
184.50223340604873
173.03989220373865
189.07626041829332
172.45238836869288
165.33221006477007
162.08803204781114
160.7544142031985
162.5370623026811
167.22125984345865
174.31918450094733
183.3682470232799
193.74256906292828
204.68860118358808
215.38022544161885
224.9554569418101
232.6078672825945
237.6750133939247
239.52553417806882
237.95892018970704
234.25315048840557
226.87011496350252
211.55089265212388
244.16073748706856
222.80557462987608
214.43574603242087
210.88021658551628
209.23611964185227
210.97431988884404
215.719112647209
222.87551034559922
231.99084767053895
242.46422067299937
253.57275129208304
264.513578963327
274.42140136142933
282.4568552986176
287.8865379159082
289.8872758253756
288.06502017466715
283.9131197347977
274.8093512156331
253.91689948508142
295.4539343003918
269.1196403592046
259.1880962663264
255.2287673599047
253.37391795263466
255.32126162642405
260.5422035391897
268.3190852580184
278.1817059366871
289.52564992034684
301.6265460098878
313.6660038371162
324.7291943622578
333.8932327255877
340.2979913555425
342.8660634949501
340.97349492313157
336.3688030369027
325.4463207546142
299.06628990383285
341.68708064334
310.20415558503095
298.7036022939894
294.4716940037855
292.6592113192875
295.20013947924235
301.4052009357782
310.4177800213221
321.7335402072974
334.7279843025559
348.656451886393
362.6642788796736
375.7614423176494
386.90723824758857
395.0677639137013
398.8479927444597
397.343159760212
392.5442334344968
379.78390057282337
347.6321535634446
382.1640352823832
345.4097041890413
332.5463016834534
328.4017760362627
327.07764337945684
330.74541890883853
338.53346203362617
349.43387943919777
362.907402811923
378.31282592256974
394.8909364240169
411.7530083339184
427.828148393979
441.93988714329646
452.84119608836727
458.73770590071234
458.3577261693896
453.9121303140701
439.41829225087645
400.77151289650124
415.67611161372827
373.2369459935166
359.2779272776876
355.7696717553457
355.5646571679913
361.0637829413407
371.17110798016625
384.7074189655202
401.1068664649661
419.7308174690151
439.83154029097466
460.511398557629
480.6337268236273
498.88738177375893
513.7826766963937
523.0255026054813
524.8505322335596
521.6611665224142
505.7580808488056
459.64109169960165
440.73006809480495
391.9143988202565
377.31902956996606
375.3093177131684
377.1259854861105
385.39808600566136
398.7391437229927
415.77097454376405
435.92367760329597
458.6010079295649
483.11843605905955
508.6254874948957
533.9678371716724
557.7315821659483
578.1801909356478
592.4094896458508
597.9919525644061
597.4875500734167
580.829681405195
525.9088094865464
455.480302428602
399.19257914774545
384.80651115886224
385.68323049492244
390.8482301092207
403.18371607699277
420.91379018317065
442.4318429707441
467.2125220060376
494.77030193913595
524.570022798465
555.9062488799159
587.7001897330774
618.5157173093897
646.4180358858109
667.7927728900792
679.3299015567771
683.7211681064301
667.5383036887357
601.9882954483253
457.4275597806229
391.9146787113237
379.3553162482806
385.38242910402886
395.88776251386963
414.10574968619426
437.7169953877099
464.8713095357815
495.18611343750644
528.3959612764019
564.2428421447386
602.3153693999701
641.7612410141543
681.2725322358895
718.8620641194341
750.1627495871486
770.7178966754817
783.438707108942
770.1167798400628
691.4472553799063
442.66791177144705
365.43868021928876
358.13883227479903
373.13513487924723
391.9709059913327
418.603158854525
449.9772086284816
484.04717591578174
520.7599515276232
560.236038870879
602.6682600015429
648.1406751040762
696.2432588933584
746.0276978134947
795.7312983047668
840.3392811567534
874.052489905414
900.4850555716976
894.8495933358269
799.9667704594128
404.63311118899907
312.9255050382578
317.73260561508755
347.9575366552856
379.57265140842
418.05568453659856
459.47353794208817
501.8084991727592
545.6474671071037
591.7312355323643
640.9307308396826
694.0822802816865
751.5161220820992
812.9720419104357
877.357980797577
939.4467318005953
991.9957991245374
1039.9616187866898
1050.3930485242406
936.2840562129329
331.0807388270267
224.60036177245303
253.4255924906439
308.0567469293549
359.298206814782
414.5913132926598
468.87073315758005
520.8463318897361
572.2959856729227
624.91492219289
680.5479362382348
741.0910477203688
807.9911756294262
882.1311768852879
963.8387337932008
1048.8386298069283
1128.3985024945193
1208.7466068155393
1249.553918594508
1117.2930391727473
188.0647181551553
85.55930410527347
165.74210658233235
258.6169795839995
338.44458012204234
415.9905040374617
485.19289399186596
547.0419888849125
605.4158742800774
663.3558731590988
723.9437159463239
790.3484330994611
865.4116118175853
951.602493521106
1051.482211041916
1163.5438350491722
1279.056595840022
1408.068627251098
1513.170432222254
1389.8982933793147
-92.65391507364663
-119.45068654966764
64.7349164709045
215.40252815718003
332.1955429043374
434.03805163099474
517.157967579561
586.8180532021303
649.5920210404876
710.1426308231859
772.9081356359678
842.3301886954224
922.7889728397491
1018.7922188599564
1135.4112796678312
1275.636531172121
1436.2687595049854
1633.1082265290295
1849.7543362223398
1823.1559878134617
-561.8688009333002
-374.1670776925329
-77.85998995536102
142.82873715821646
319.64658233010886
455.30448747798937
554.5710415998167
632.3218461259831
698.4373580324611
759.7266406564486
822.5273756676527
892.7804628892952
976.8723317300827
1082.4035777156378
1218.0158805372787
1396.9754350160283
1634.123542185972
1917.6481076130299
2232.000643464326
2455.1781139146797
-1611.3033942468885
-636.3038236331633
-169.60303216281338
105.66945609708705
357.95775176650045
526.703742628461
630.6193464381478
705.7427598335927
766.4622620149393
820.7988648803163
876.3029130062037
939.516021461081
1017.7044092919223
1120.564648572904
1260.7500110390395
1469.6175616557584
1795.3009842024028
2178.1548224816975
2693.1434850648566
3797.411383782143
-4300.807768876048
-803.6795835667338
323.41339164519184
560.4382787710036
729.748978353518
816.5697562522856
850.3580945547993
874.8099031449811
898.9202348087543
924.1427597723888
953.5307009525935
990.0421618923554
1037.0168224324161
1098.9016472608923
1182.124248913555
1315.2986503536133
1557.4404007315513
1922.445236974017
3086.7779229605176
6778.619570820774
)
;

boundaryField
{
    movingWall
    {
        type            zeroGradient;
    }
    fixedWalls
    {
        type            zeroGradient;
    }
    frontAndBack
    {
        type            empty;
    }
}

// ************************************************************************* //
