/*--------------------------------*- C++ -*----------------------------------*\
| =========                 |                                                 |
| \      /  F ield         | OpenFOAM: The Open Source CFD Toolbox           |
|  \    /   O peration     | Version:  5.x                                   |
|   \  /    A nd           | Web:      www.OpenFOAM.org                      |
|    \/     M anipulation  |                                                 |
\*---------------------------------------------------------------------------*/
FoamFile
{
    version     2.0;
    format      ascii;
    class       volScalarField;
    location    "7.049999999999983";
    object      T;
}
// * * * * * * * * * * * * * * * * * * * * * * * * * * * * * * * * * * * * * //

dimensions      [0 0 0 1 0 0 0];

internalField   nonuniform List<scalar> 
400
(
299.8015587086649
299.7165609507278
299.8861925643587
300.0925445114668
300.25959940532846
300.4041585980238
300.5317766007082
300.64284620189795
300.73929882957515
300.8214349309659
300.88735367978694
300.9317837315256
300.94695860732924
300.9252538914774
300.85397180591883
300.7218115929198
300.524802151663
300.26867118389055
299.9392259253678
299.82602393086876
301.2448962003172
302.8855746583843
304.0654304126773
304.96120303841957
305.5970233783436
306.0387246010544
306.3182240364543
306.46340370307956
306.50384295835147
306.4636043887171
306.3627609795702
306.20988831790214
306.00323757996165
305.74045664644945
305.42646973252806
305.049193170461
304.5793642382117
304.01612393344647
303.15260632134715
301.19271960025696
300.94883338276696
302.02942533820726
303.45587773756614
304.60337144941246
305.47266520449585
306.16435369672735
306.687494949137
307.0646217273297
307.32375875721266
307.4829533177056
307.553575215631
307.52923973033415
307.3856402367682
307.1010843957376
306.66041064740466
306.0379483645488
305.19707074535893
304.2110366923144
303.02869595328457
300.8673611064879
300.90373016701017
301.70850200384365
303.48374191516723
304.91519897119036
306.02010295432854
306.95190731262534
307.6988908357584
308.28046874922074
308.7240053834478
309.04157466584314
309.23748773240294
309.2942511674541
309.17200551581925
308.8378194395306
308.2694857861109
307.4366416451165
306.3006877677824
304.9952477594339
303.5330720563175
300.8805139548505
301.08188283151765
301.90836577580836
304.082859890585
305.8286429631376
307.18561291181874
308.3568891001891
309.3173038125321
310.0859202422653
310.69045993827444
311.1377186251127
311.4244337256956
311.52604425492575
311.39790531954105
311.00162330887144
310.31140175082925
309.28998875128866
307.88874066290464
306.2928454910625
304.52854584282517
301.1121979727222
301.2365751612756
302.0585019557086
304.60622418259805
306.6563925827396
308.25914231497666
309.66438429348005
310.83571784209533
311.7913132506988
312.5586161927232
313.1395367823139
313.5254915472986
313.6868968368468
313.57141778281505
313.13461275488703
312.3455337242908
311.15608274876655
309.50212259587823
307.6147466270949
305.528363444004
301.33369226240455
301.3998398866294
302.2351354392962
305.16907041463185
307.5258014183046
309.372060650496
311.00776242536716
312.3867291899726
313.52653612601245
314.4543534471085
315.167448074683
315.6522557001255
315.8762802451331
315.78204158620804
315.3200368758331
314.4532123140357
313.11901546010705
311.2325254325273
309.06268123099966
306.63051620000317
301.579013019314
301.58487300791734
302.45052676386445
305.79121767928615
308.45875952739783
310.54521313130124
312.4053954860867
313.9843852687546
315.3001763017198
316.3804270013764
317.2184120231593
317.7959869006505
318.0805875386262
318.013623416689
317.54132764214665
316.6190800922262
315.1658400285254
313.07104039040274
310.64081985357797
307.862640517973
301.8515233586856
301.7824088065722
302.66355965368643
306.43185114652175
309.4108890451989
311.72704839670166
313.7988160503494
315.5630253536811
317.03961788861693
318.2585691666888
319.2107740818998
319.87520434146865
320.2218736418467
320.1936401560832
319.7317531547905
318.78133975336834
317.2380835912421
314.9622910811843
312.30822619032364
309.2141906415767
302.13554371069085
301.99158163946385
302.84964173020177
307.0754167963607
310.3634180637221
312.8892270987413
315.1507291941327
317.0764020755397
318.6906275245186
320.0290867217641
321.0828604417037
321.8300922229274
322.24521947259495
322.27477064066767
321.8522756696232
320.9075027113415
319.30521803668245
316.8728737295789
314.0416690270776
310.69630189175643
302.4209376639895
302.2147023058678
302.97964238018045
307.7104459893918
311.2994673729067
314.00096991546644
316.41837212721117
318.4701774193145
320.18913509941814
321.62197485021903
322.7637046683823
323.5943573720664
324.0936165370583
324.213375828594
323.873960024163
322.98079128540365
321.353582615809
318.77579622828154
315.8080138228365
312.31705550001084
302.69061177078544
302.45823432621495
303.0123396162318
308.32386706459846
312.19212544923977
315.01596458287094
317.54234817530033
319.672350696739
321.45272699021945
322.948764819762
324.1644819879063
325.08617156652224
325.698988425834
325.96114482295116
325.7718718579245
324.9992364026442
323.3933200515067
320.6593861542724
317.55851066654753
314.07011833687517
302.91430914445044
302.7251795114059
302.89847070377107
308.926587469675
313.02736252566564
315.89335647127655
318.46763877751056
320.61354943768987
322.39945590885355
323.9186886177182
325.19025364912375
326.2137538516462
326.9814299007012
327.45843822631196
327.5143252262215
326.9640500118346
325.45187076481415
322.52872770394146
319.22017896505037
315.91781646284704
303.0718632238456
302.9958582096118
302.6110270189533
309.5998501712293
313.84690711673886
316.63173592975215
319.1656203332348
321.24288865310194
322.9631649933479
324.45458075799917
325.75453849668537
326.8860748079318
327.8558401988789
328.63746110558145
329.06567039491574
328.88754209635675
327.60211207683847
324.46698183794433
320.72701404515266
317.690015480426
303.15437950295836
303.3548976413619
302.28944647400664
310.3722232575005
314.5327272882887
317.09546502676443
319.50984418796963
321.44476061057736
323.0486919233603
324.48051627208685
325.78838826544586
327.0326060655366
328.25400925040185
329.43712577569676
330.39397179011405
330.807642000351
330.0260230114368
326.7958812645529
322.189902885666
318.9855406010507
303.1225298237227
303.7515767078817
302.4313511305227
311.4327047326548
314.9905254189944
317.24553037814746
319.5447502923686
321.3092114826371
322.79000927712895
324.17060588170017
325.47282247964296
326.80283713113
328.2568334957714
329.84529660954695
331.40307932726785
332.589319016967
332.68673778632495
329.7538572352049
323.85154162927495
319.4342029986454
303.74545177348574
302.5079681706683
304.1907602355297
314.68369814575095
317.05791240473474
318.6085337507296
320.4479621565151
321.7909073469667
323.0051436397721
324.241402148481
325.51276043378226
326.88551102247317
328.44845987847174
330.22824915899764
332.1624490306256
334.0261256513461
335.1492456177699
333.20289354088277
326.0748508803752
318.16726120971265
306.95413686163886
303.1782985684947
311.79790300377744
318.8372159799968
318.9853677670632
319.65355033668465
320.6706876830213
321.7424993546998
323.0298373296211
324.46135401121234
325.98643937266604
327.6372436386474
329.4810604824498
331.5824511730461
334.02976814336387
336.6755714759338
338.91388055095274
339.7932619644611
332.79938645276127
312.72012305033724
308.573149470681
320.46742639283815
333.22568249202885
314.643564565268
311.0658564527853
314.3264800941579
317.56289886279745
320.50529450473965
323.34341167665883
325.93100672896253
328.28645811324486
330.53807853062415
332.83393802830795
335.36146638159533
338.44402435762987
342.19722289578726
346.4835675956873
352.7362692517234
349.6210883632852
307.7174026596664
308.1459141652396
287.74656057988767
351.8574354288041
344.77213816274036
341.25172015550373
342.5410724884117
343.11030440042515
343.2628748746219
343.50253259372954
343.7834316488589
344.07055734767425
344.36280174292204
344.61508812099464
344.8145551322661
344.98382052578916
344.9585422110537
344.532003239353
345.80996140307644
343.32035310452164
314.45957569554446
365.66362855319124
)
;

boundaryField
{
    movingWall
    {
        type            fixedValue;
        value           uniform 350.0;
    }
    fixedWalls
    {
        type            fixedValue;
        value           uniform 300.0;
    }
    frontAndBack
    {
        type            empty;
    }
}

// ************************************************************************* //
