/*--------------------------------*- C++ -*----------------------------------*\
| =========                 |                                                 |
| \      /  F ield         | OpenFOAM: The Open Source CFD Toolbox           |
|  \    /   O peration     | Version:  5.x                                   |
|   \  /    A nd           | Web:      www.OpenFOAM.org                      |
|    \/     M anipulation  |                                                 |
\*---------------------------------------------------------------------------*/
FoamFile
{
    version     2.0;
    format      ascii;
    class       volVectorField;
    location    "7.049999999999983";
    object      U;
}
// * * * * * * * * * * * * * * * * * * * * * * * * * * * * * * * * * * * * * //

dimensions      [0 1 -1 0 0 0 0];

internalField   nonuniform List<vector> 
400
(
(0.0002908055681194998 0.002789965504217683 -6.5483555336223955e-21)
(0.00046174002973318 0.005149605619064864 1.3856897317456598e-19)
(-0.0008303607356072258 0.006328141417001144 5.881874481852174e-20)
(-0.003279675356488658 0.0069563186167648046 1.003148530497367e-19)
(-0.006301037759807038 0.007228886468532015 -2.9061248896838626e-19)
(-0.009486487174644126 0.0072423039342823575 -1.0521709125301267e-18)
(-0.012489284523341181 0.007056037278391143 -1.3215999893799874e-18)
(-0.015015042702107809 0.006718234394789847 -1.3990931358714345e-18)
(-0.01684003266182077 0.006270929382377299 -1.8452603012642556e-18)
(-0.017808593258683603 0.005753233648395558 -2.3920283644794955e-18)
(-0.01783367110305558 0.005205201497059667 -2.5457012638096704e-18)
(-0.01690195629506786 0.0046707544355259565 -3.3274672677883343e-18)
(-0.015080116830382104 0.00419893235382517 -4.281877361352685e-18)
(-0.012520825541952075 0.003844018006932039 -5.055175918372562e-18)
(-0.00946861665238117 0.003666429468947539 -5.788605466204246e-18)
(-0.00626131199099704 0.003721157435469176 -5.360256190613427e-18)
(-0.003304009510384299 0.004024693235666821 -4.9132777803043755e-18)
(-0.001040018665626738 0.004506258864740194 -4.0035065681909765e-18)
(0.00017618526799565795 0.00485489694717711 -3.0083673990415673e-18)
(0.0005552070625817058 0.003606186986827456 -1.1991908919402294e-18)
(0.00033830461240502203 -0.0006717555574074379 -9.170020450404835e-20)
(-0.0014704756658995418 0.0012961703716749058 9.28062023471839e-19)
(-0.0055950001498441485 0.0033406880594927485 3.6706175958023246e-20)
(-0.011679499392418911 0.004706925911509916 -4.496405371640284e-19)
(-0.018912342982389207 0.005370413730756138 -1.7323667641521687e-18)
(-0.02648024151773875 0.005354639172530674 -3.7520356700380484e-18)
(-0.033594329832337545 0.004741894910184965 -4.268544311401469e-18)
(-0.039570569944034586 0.003651782261304898 -3.977907103931541e-18)
(-0.04387933542349273 0.002208416975207327 -5.5909923550395806e-18)
(-0.046150503877599704 0.0005393371154498972 -7.668226355852554e-18)
(-0.04618209643269707 -0.0012205737744864303 -7.000171390711407e-18)
(-0.04395256748226702 -0.002927720200995379 -9.67333312105839e-18)
(-0.03963098830597244 -0.004428412368626241 -1.2686912149893618e-17)
(-0.03358061267650846 -0.005562313585594891 -1.5219598160877285e-17)
(-0.026356245190657622 -0.006170587537369052 -1.528781874537843e-17)
(-0.018696066277180276 -0.006110941402980775 -1.614628344356333e-17)
(-0.011430344083370528 -0.005313571588960373 -1.5102762108979266e-17)
(-0.005337247492972351 -0.003810302962545062 -1.1979236242928507e-17)
(-0.0014263884810209394 -0.0017151999323222983 -9.633378995511718e-18)
(-0.0004838317925759678 2.784942089985728e-05 -4.161882186370761e-18)
(-0.0009166778112012098 0.00047949772784621554 1.5720702186193524e-18)
(-0.003812162441151756 0.005115484821503303 3.6228933341434594e-18)
(-0.010670451584642785 0.009776793270006514 1.8160336331502445e-18)
(-0.020126424112914033 0.01294851562846895 1.9081405801021255e-18)
(-0.030878913650522102 0.01446445782933288 -5.470272280317761e-19)
(-0.04193597991261275 0.014326445683710692 -3.63858041681353e-18)
(-0.05223263434788105 0.012699869220611911 -5.920607714262484e-18)
(-0.060832504908438306 0.009858999141479634 -7.14359890685558e-18)
(-0.0670126476304495 0.006112076803491596 -9.039543545775923e-18)
(-0.07026451978271184 0.0017878072593856924 -1.1260177918835532e-17)
(-0.07031107200046381 -0.0027642956595740325 -1.2499857029349615e-17)
(-0.06712359908615496 -0.007173152224182038 -1.5136749171533813e-17)
(-0.06093376518541412 -0.011049438350607002 -1.97353970382544e-17)
(-0.05223502176876371 -0.013998787598806515 -2.285421002980707e-17)
(-0.041773739331087426 -0.01564692604632261 -2.3890792440056106e-17)
(-0.03054263369835992 -0.01568481371789622 -2.3964790506769265e-17)
(-0.019660525507916075 -0.013966380764579227 -2.2555512425627082e-17)
(-0.010127421943947222 -0.010588487465522194 -1.8839028541252565e-17)
(-0.0033079708462644343 -0.005899200629781156 -1.3427182385458983e-17)
(-0.0006985787751779636 -0.001134875177868399 -5.2503920747555804e-18)
(-0.001600570828156606 0.003319319755504657 4.2753621373999696e-18)
(-0.005650975062137305 0.012298341583966258 5.155263577516403e-18)
(-0.015324571219875474 0.020262402535380954 1.4922795223103145e-18)
(-0.028098916123671398 0.02558561737147251 1.9192330548480064e-18)
(-0.04214864915142811 0.027988191454886843 -3.308226055165781e-19)
(-0.05634821034200087 0.027492771575829026 -4.555671217066591e-18)
(-0.06942404135463412 0.024389829198251507 -8.295540840152921e-18)
(-0.08026671437121655 0.019146243812244876 -9.62028802393835e-18)
(-0.08803313245201716 0.012300736524290446 -1.2033875936508331e-17)
(-0.09212823420023476 0.004435136216987104 -1.5266694068591208e-17)
(-0.09222449406048638 -0.003831433000334503 -1.619720348338227e-17)
(-0.08828139630192361 -0.011843453498683982 -1.8074191506355756e-17)
(-0.08055931037465562 -0.01891677820616353 -2.7542527583469592e-17)
(-0.06962386376699913 -0.02436409349016176 -3.2218155220626746e-17)
(-0.05634192149067573 -0.02754006659441582 -3.34240514761918e-17)
(-0.041893608866607784 -0.027920196141968664 -3.247428438693048e-17)
(-0.02764254717420183 -0.025242844956832284 -3.185610067669711e-17)
(-0.01482228680339756 -0.019625062545497052 -2.709147553878008e-17)
(-0.005274279197286967 -0.011609333648070177 -1.9822931742419633e-17)
(-0.0013075990025569566 -0.0029627147865665514 -8.657460516861628e-18)
(-0.0021189814068414297 0.006711624708140515 5.137374655788298e-18)
(-0.007413731998287562 0.02095160214026765 8.663710414021375e-18)
(-0.019810787506616724 0.032715977854816086 5.757937401084361e-18)
(-0.0357754636154419 0.04033497259889018 4.444736688028434e-18)
(-0.052964900001502946 0.04350356776874635 1.6194233586464693e-18)
(-0.07009286473383664 0.042347177092920366 -5.445772689668711e-18)
(-0.08570539289261225 0.037335567256541136 -1.012524237381059e-17)
(-0.09856783333749565 0.02916367518376899 -1.0421272922151286e-17)
(-0.10776424526326393 0.018628005257919605 -1.3288883059928034e-17)
(-0.11264852394147556 0.006585725868202446 -1.8269192268283683e-17)
(-0.11285772715283135 -0.006053845196242479 -1.8162577296205714e-17)
(-0.10833046483432071 -0.0183307291484877 -2.1538087196611532e-17)
(-0.09932428115404367 -0.02924255337329152 -3.0530260211091816e-17)
(-0.08642869323873126 -0.037775827528006026 -3.606477510114029e-17)
(-0.07057676348806781 -0.04296866238742751 -3.8067446523988186e-17)
(-0.053091563268370216 -0.04402008058415694 -3.747383960964239e-17)
(-0.03555338556664202 -0.04047462460715041 -3.5204733725953124e-17)
(-0.019420453372909877 -0.03237011303829317 -2.797214272708063e-17)
(-0.00711196280829579 -0.020292155965873266 -2.1590996553952146e-17)
(-0.0019317043394715878 -0.0062358877595480346 -9.264404163816174e-18)
(-0.0026612130137354854 0.011060234320751304 3.978017645883873e-18)
(-0.009152274213198294 0.03187561565573196 1.204377187236596e-17)
(-0.024209564773654584 0.04816196771808638 8.987914920817913e-18)
(-0.04330119750468132 0.058299019180832155 8.593870691263149e-18)
(-0.06353209120238795 0.06212247010884156 7.989062852049571e-18)
(-0.08344377460122734 0.05997924701312283 6.433337834768106e-19)
(-0.10142657055715464 0.05260064670954778 -6.8373585033112804e-18)
(-0.11615911789531864 0.040963626740940805 -8.404934303803387e-18)
(-0.12669222041841982 0.026152742077774415 -1.1688200850432483e-17)
(-0.13235846839653845 0.009314270840978132 -1.6493327519981002e-17)
(-0.13277057605502057 -0.008347453568291505 -1.6078589053246667e-17)
(-0.1278346636730149 -0.02556209642621511 -1.866385810117637e-17)
(-0.11777221249691625 -0.04099325262426788 -2.8235945100114024e-17)
(-0.10314790333188234 -0.053268570490932324 -3.439785872171407e-17)
(-0.08490836686728684 -0.061052789498961715 -3.617480013518255e-17)
(-0.06447974563426018 -0.06318459323808945 -3.3270966785417406e-17)
(-0.043645213996142185 -0.0589074480091546 -3.290620539086604e-17)
(-0.024107908154943673 -0.04806743395636797 -2.4266573907683658e-17)
(-0.008926496771707518 -0.03119937848451835 -1.5863924143333442e-17)
(-0.0024713859099877596 -0.010426740595775478 -7.631897442515257e-18)
(-0.003200839832730229 0.016361827107715145 2.7955625520437722e-18)
(-0.01089405972592293 0.0450650832904209 9.040222157640223e-18)
(-0.028629193808301145 0.06656284189687049 9.7882517603307e-18)
(-0.05082368438351122 0.07940018788068193 1.2925652759235563e-17)
(-0.0740015459488887 0.0837200749052754 1.2335179360108062e-17)
(-0.09654052498928173 0.08022842051449906 7.460226649129321e-18)
(-0.11670802664119895 0.07001960016986643 -2.3809866703834044e-19)
(-0.1331422515023335 0.05441517751395055 -4.463226311371356e-18)
(-0.14490745289379206 0.03481392037691791 -7.853884653383323e-18)
(-0.1513497530013161 0.01265079665405653 -1.0477867267708614e-17)
(-0.15207175096775016 -0.010590116000663403 -1.0678554994294682e-17)
(-0.14693611822091326 -0.03334522584948278 -9.056312762596968e-18)
(-0.1360916155107987 -0.05394894971548662 -1.6688790328968355e-17)
(-0.12002093002481351 -0.07064864730371541 -2.0283671867610932e-17)
(-0.0996187324742507 -0.08167605506277129 -2.0948304794601978e-17)
(-0.0763594265803272 -0.08540598765279697 -2.0723913894835375e-17)
(-0.05220250116688398 -0.08064027558091022 -1.8775144489386914e-17)
(-0.029113169598979187 -0.06687469555709524 -1.350510266375521e-17)
(-0.010876275611615388 -0.04444374750368335 -9.169591479562866e-18)
(-0.0030466128802442483 -0.01555654408850711 -3.707488005244292e-18)
(-0.003776516551561918 0.02259511400351222 1.2049668400160998e-18)
(-0.012728424632694794 0.06045925714651907 3.392541446581183e-18)
(-0.033202915614283936 0.08779621356664621 8.286007983861348e-18)
(-0.0584621576524109 0.10342686487646782 1.1787368491028669e-17)
(-0.08441899773740379 0.1079955495856986 1.1930481187525409e-17)
(-0.10931810981414747 0.10273716088052882 8.609586509768514e-18)
(-0.13135956722941985 0.08923031582163202 3.33108557757599e-18)
(-0.14920994925752554 0.06920884425243391 -1.0268008426610822e-18)
(-0.16201300964479945 0.04440357583428977 -4.3265512788416276e-18)
(-0.16917787275970275 0.01651883958660759 -6.465112301705126e-18)
(-0.17032104118562416 -0.012722586674763692 -7.241939356858152e-18)
(-0.16525467184900844 -0.04151014136528194 -7.620378404224446e-18)
(-0.15401384104214466 -0.0678815736817286 -9.912531150545077e-18)
(-0.1369270718511707 -0.08970186910033637 -1.0259643395073121e-17)
(-0.11474456324683215 -0.10471369341810785 -8.545004826204505e-18)
(-0.08889936060041892 -0.11070550363536708 -1.0003990139688268e-17)
(-0.06146403861534787 -0.10585539970459983 -8.114133520468941e-18)
(-0.03465005858226562 -0.08909155499860014 -1.0590215121578515e-18)
(-0.013077969928793547 -0.06032741469162596 -3.2513149517911687e-18)
(-0.003716603564520312 -0.02177170761652012 -1.566526495457333e-18)
(-0.004432638167452313 0.029843868519205237 8.592148640016648e-19)
(-0.014727338145745552 0.07817994080260118 8.525374571465601e-19)
(-0.03803153394364981 0.11190471430230146 8.816344248155434e-18)
(-0.06626153686285711 0.13027470289623502 1.3536665399459455e-17)
(-0.09467843610246546 0.13470229538871567 1.4822166381607912e-17)
(-0.12146190320469906 0.12717024275432673 1.194066750437867e-17)
(-0.14483837142206488 0.10988610672259713 6.360414969347641e-18)
(-0.16360643532448266 0.08506708842025851 1.7052744438572767e-18)
(-0.17708459543459865 0.05478145946102887 -1.626730505194313e-18)
(-0.18481659207809295 0.020959844387022367 -3.534627557021874e-18)
(-0.1864726671683359 -0.014508989587849339 -3.976440045344755e-18)
(-0.18181631897181397 -0.04965029530784333 -3.757625908119395e-18)
(-0.17072679313929012 -0.08227524705159726 -5.1685663672084105e-18)
(-0.15328978037128368 -0.10989693637872018 -4.251745870773498e-18)
(-0.12998228482753 -0.12972975430105552 1.9483885394867745e-19)
(-0.10205375281910661 -0.138841602473322 -4.294948635259044e-18)
(-0.07156624300147983 -0.1345563791080934 -3.690998456364077e-18)
(-0.040905784353601114 -0.11493468264908965 2.093576519330855e-18)
(-0.01565051305969855 -0.07914423445572832 -1.3840928049610339e-18)
(-0.004534952547078701 -0.029232886991539815 -9.127779365118151e-19)
(-0.005218967452471215 0.038227258668190364 2.4888175605280964e-18)
(-0.016972546886562412 0.09838185300908994 9.418756100584273e-18)
(-0.04320929563236473 0.13887675027988214 1.2339204100736064e-17)
(-0.0741922508715778 0.15967347634296059 1.766675247488853e-17)
(-0.10449211475244366 0.1633405306402643 2.2105904796240452e-17)
(-0.13235411873228464 0.15289411465073727 1.8823237255867678e-17)
(-0.15617930503823335 0.1313407464844864 9.117818530893659e-18)
(-0.17504718922336635 0.10144938468485577 3.56063013568435e-18)
(-0.18858154267817415 0.06561036569602711 -1.624954234373828e-20)
(-0.19655822157830852 0.025906765520283818 -1.8047724909079364e-18)
(-0.19876114648840681 -0.015717434712210092 -1.1580282022529773e-18)
(-0.19492252475328029 -0.057251428217094655 2.1761007598328314e-18)
(-0.18473071567710195 -0.09640185855984403 -2.421827000189285e-18)
(-0.16792981841510857 -0.13041353646087508 -2.4737220967212748e-18)
(-0.1445570265908433 -0.15597452271837203 -4.3329402657733777e-19)
(-0.11546754094106333 -0.16930444732703673 -4.12190799075923e-18)
(-0.08249634798267334 -0.16659258390479975 -5.367613526962439e-18)
(-0.048032151978278065 -0.1446153888234782 -3.9111877351428254e-18)
(-0.018724354273326645 -0.10128744027773806 -3.954111028044224e-18)
(-0.0055782608723750245 -0.03817846781790071 -1.8495295894978435e-18)
(-0.00623164934261003 0.04792191590865043 2.1089162602526578e-18)
(-0.019599156747203788 0.12125817833431454 4.213743266279142e-18)
(-0.048856060373052373 0.16859700214442044 1.2279225801328002e-17)
(-0.08214233160864638 0.19108572781510133 1.6636432307018367e-17)
(-0.11333577047463235 0.19303050764128035 1.9042515635121265e-17)
(-0.14098394262998412 0.1788485417865504 1.5779211466069635e-17)
(-0.1638852023590332 0.1525336483788114 8.674323642451712e-18)
(-0.18160135738988756 0.11745794526520703 3.997456675288159e-18)
(-0.19422627118069452 0.07628459792603222 2.565199793373689e-19)
(-0.20188747730204612 0.031136819179191068 -2.114972943865765e-18)
(-0.20456193366809777 -0.016138823790626478 -1.219981783113545e-18)
(-0.20198928053784598 -0.06367353374854351 -6.697607081375929e-19)
(-0.19365309090592933 -0.10925482621276718 -3.425700071088654e-18)
(-0.17886557221987595 -0.1500197711934832 -2.5636404626509485e-18)
(-0.1570322859990057 -0.18220973595111448 4.579976348968542e-18)
(-0.1283290520241175 -0.20111333778174537 -6.510124671037238e-18)
(-0.09401751322399576 -0.2014737416536281 -1.057975168975342e-17)
(-0.05614086413639389 -0.17822476038345753 -9.39833241004153e-18)
(-0.022464226956928224 -0.12722839425813048 -9.591234288659607e-18)
(-0.006965685806178222 -0.04894109432663116 -4.849006727892142e-18)
(-0.0076693406003980735 0.05922753273229445 3.6428646938998416e-18)
(-0.022853833614880994 0.14706923090023064 9.915133596826453e-18)
(-0.05514309478668379 0.20077211359797328 1.483933814448745e-17)
(-0.08986586664983887 0.2235630392511483 1.5370989403384683e-17)
(-0.12032661786873562 0.22235380356399048 2.0843183757726825e-17)
(-0.14578834642512706 0.20340728838345498 1.6900875899975545e-17)
(-0.16576082969738432 0.1718824980406414 6.3090512381617694e-18)
(-0.18053878608686577 0.1317597501616343 4.029381679260299e-18)
(-0.19087054327531278 0.0858727249950994 -1.6360198455274794e-19)
(-0.19735932879392773 0.0362278438161113 -5.239010145594332e-18)
(-0.20026301724568266 -0.015616780832843657 -4.604205364388936e-19)
(-0.19939035418328976 -0.06815640025098622 5.788162980501326e-19)
(-0.19404584706369502 -0.119509467716272 -8.70389158488684e-18)
(-0.1830625508590378 -0.16696274304691522 -1.0592033603584073e-17)
(-0.16503682354011995 -0.20651639848058878 -6.057440863877732e-18)
(-0.13912866239097987 -0.23256089636701566 -1.6336832444467608e-17)
(-0.10552694740050236 -0.23810840709717657 -2.0803871485111592e-17)
(-0.06528916417783551 -0.21554772241178569 -1.4492769381607748e-17)
(-0.02712830617572701 -0.15746685206633426 -2.0163309702817876e-17)
(-0.00892399703772006 -0.06198099582972251 -1.3029497509622606e-17)
(-0.009940338232061884 0.07266672090831129 5.7408788821814046e-18)
(-0.027179852345006406 0.17613610397832444 1.610584803571907e-17)
(-0.06227511139346881 0.2347755856901436 2.129119186801439e-17)
(-0.09681648965811497 0.25553425905199734 2.6043040354825094e-17)
(-0.12395808017452266 0.2491537803733012 3.25538497547246e-17)
(-0.14436139122298455 0.22422654371269046 2.6994157290904392e-17)
(-0.15865116328809198 0.18718661654497595 1.395206398678974e-17)
(-0.16812672571600298 0.1425288898515854 6.512368307480365e-18)
(-0.17435514335999494 0.0930748415457556 1.7301521825592312e-18)
(-0.1785054182434738 0.040510320662190485 8.919897082683796e-20)
(-0.18118610894881704 -0.014109615481405376 3.878960752955388e-18)
(-0.18235108402675293 -0.06988651398670807 1.0073921485694579e-17)
(-0.18120816439933707 -0.12556410477632637 1.4652329725750592e-18)
(-0.17615675602720016 -0.17893583580844594 -2.840510105028754e-18)
(-0.1648987780439631 -0.22614378854098205 -4.689544412440914e-18)
(-0.1452682357790468 -0.26093986838137767 -8.332278201855673e-18)
(-0.11575298420317459 -0.2744664889061065 -1.0525897504799375e-17)
(-0.07536472137088854 -0.25578263449809613 -9.56259105355887e-18)
(-0.0331276637064602 -0.1924667642162998 -9.423536229268115e-18)
(-0.011914811002403837 -0.0779770746001081 -4.778443542887124e-18)
(-0.013785466140238026 0.0892745480859739 7.550090762567034e-18)
(-0.033240939632150454 0.20878570405787258 2.0844765898145756e-17)
(-0.07025638605441366 0.26923226818032814 2.6829802235703054e-17)
(-0.10169136781256696 0.28434906625676476 3.4632666437678116e-17)
(-0.12156768186907166 0.2701845485234216 4.075380222033461e-17)
(-0.13295430784326073 0.23802984981419675 3.4553173876974765e-17)
(-0.13804448883945872 0.1955310437110518 1.8715204952830034e-17)
(-0.13937019977715126 0.14742412707594532 7.454502504864338e-18)
(-0.13938384576228915 0.09622039071674483 1.5696283327046828e-18)
(-0.13981068192127458 0.04304113399135264 8.209821311761313e-19)
(-0.1416155098696225 -0.011766111626721382 3.789543597897599e-18)
(-0.14496259142669304 -0.06812027870345796 9.366629599072685e-18)
(-0.14910745611694312 -0.12567012550634488 4.614697789345944e-18)
(-0.152209587933902 -0.18312990859266523 5.451513043834582e-19)
(-0.15120090782396867 -0.2373626520175883 -2.0698602563063214e-18)
(-0.14245591733912505 -0.28210353044409514 -4.187768513290028e-18)
(-0.12214508316017048 -0.3068859389683784 -5.392782474234021e-18)
(-0.08573415002931645 -0.2968834296446955 -5.289836629088767e-18)
(-0.041028735535899113 -0.23254989646910276 -4.5181273255289705e-18)
(-0.01673836344486008 -0.0982323506012422 -1.9772675110905126e-18)
(-0.020289356102206915 0.1111765683650577 1.0166491177122807e-17)
(-0.04194256541622517 0.24504002567768438 1.9184614854140897e-17)
(-0.07830566010368277 0.3010373863598903 2.820434498118723e-17)
(-0.10138529163236637 0.3053377780343215 3.874777585912605e-17)
(-0.10826033914899938 0.28053003092494067 4.3415663238381884e-17)
(-0.10558232761669274 0.24039192962870656 3.563740198177413e-17)
(-0.09744408418686473 0.19331469620882588 2.019541691544051e-17)
(-0.08766380921474295 0.1437298493174523 3.880308331320228e-18)
(-0.07942112287122127 0.0934161745792589 -2.905141318151013e-18)
(-0.07479428138079271 0.04268000219859689 -7.821031274846515e-19)
(-0.0749829280676429 -0.008973050390796699 9.11887818237063e-19)
(-0.08037355421296986 -0.06237782225949167 8.335218033118953e-18)
(-0.09045440752678979 -0.11825312533933542 6.015013314156949e-18)
(-0.10351776636499702 -0.17659024320653774 2.718153228898695e-18)
(-0.11618994317111371 -0.23565840299168964 2.5183101233014653e-19)
(-0.12369092280572061 -0.29023726770703845 -1.4416071382589013e-18)
(-0.11971021626780769 -0.32929740059211415 -2.3823664123246635e-18)
(-0.09456991853765871 -0.33440872875726024 -2.5512947483868144e-18)
(-0.05163901607100238 -0.27711176033756524 -2.096054628743216e-18)
(-0.02457191257175914 -0.1250668235445942 -8.574252117084371e-19)
(-0.03065707621550776 0.14083662279557183 5.937720419921658e-18)
(-0.053977882442774905 0.2831922456669048 1.584523422908146e-17)
(-0.08326821972400104 0.3249415154529488 2.644054002565632e-17)
(-0.08877645086327868 0.3123570453170166 3.8291135001616506e-17)
(-0.0748803228855165 0.2745714372183199 4.446394223465556e-17)
(-0.05256141858043761 0.2268903212376895 3.9636002392507354e-17)
(-0.027526907077641268 0.17741254024605266 2.2704181613223923e-17)
(-0.004470546975042443 0.12938078327640878 9.210678150610603e-18)
(0.013244682076468681 0.08334943817657003 2.386399119276937e-18)
(0.02366309805226379 0.03862148180498409 1.6628723875558226e-18)
(0.02564610350297475 -0.0061395651806677625 5.317399125228911e-18)
(0.018668015052398408 -0.05259347990875228 1.8655448643292493e-17)
(0.002839941978817075 -0.10247019690873224 9.52018362226089e-18)
(-0.020757794486368053 -0.1571722681972325 4.8330871761909256e-18)
(-0.04929913261979708 -0.21695600202225734 2.1118314583443573e-18)
(-0.07789294498817462 -0.27907678923154755 4.2814692515344434e-19)
(-0.09873182153729698 -0.3339534528720243 -5.393884470481351e-19)
(-0.09643466697442231 -0.3608471514238534 -9.219222056780684e-19)
(-0.06476584290640111 -0.3224365624318862 -8.37061050868916e-19)
(-0.036754860417325036 -0.16030403177581035 -3.4514970617472116e-19)
(-0.042624081539169446 0.18132354727702998 3.121088499339972e-18)
(-0.0640632829476694 0.31725112175293907 1.1006495533776291e-17)
(-0.07332974921882728 0.33145089586786386 2.2193404645252902e-17)
(-0.0482938118808849 0.2975656378370345 3.3921185364918526e-17)
(-0.0054733707866790725 0.24651143552864976 4.012537393935723e-17)
(0.040751778767454686 0.19379858210924772 3.7632028690623456e-17)
(0.08417451819036798 0.14589692388763065 2.2014338981811104e-17)
(0.1203582498682704 0.10359716870381913 8.552985567455363e-18)
(0.14681146821294178 0.0657470575386276 2.2648001327172392e-18)
(0.16242198198381566 0.03064343209212952 1.5650190795324443e-18)
(0.1665387355353436 -0.0036763847575226167 4.258422762871322e-18)
(0.15867438860790256 -0.03935319512973497 1.8111131659232087e-17)
(0.1384589187030527 -0.07873420964882122 1.0304342331616882e-17)
(0.10589453212581369 -0.12433308766095771 5.879220020599185e-18)
(0.06213165922084774 -0.17852638558873513 3.2300258237974488e-18)
(0.010522903736727394 -0.24240399815157232 1.5413519933574954e-18)
(-0.04152903114478344 -0.3105302203274053 5.0811782841043e-19)
(-0.07565254077829466 -0.3630865772116868 -2.6422724034078302e-20)
(-0.07204145367421136 -0.3607561779092972 -1.9044302003252822e-19)
(-0.04918061248746288 -0.20849358419610545 -9.829263744220464e-20)
(-0.03545576814206768 0.24755333208069696 -1.742667592737745e-18)
(-0.05164106413993958 0.33441077394268764 6.014023646715735e-18)
(-0.017802857034719666 0.2940963378725787 1.6058482706899802e-17)
(0.051531770713015304 0.23952636025541899 2.6012033852492312e-17)
(0.12618036402005928 0.18321421694919218 3.100318997898475e-17)
(0.19498090547204397 0.13433901863074443 3.0037830569578164e-17)
(0.2530248100357965 0.09593587622636039 1.775588633741453e-17)
(0.2976765432991238 0.06556616122249515 -1.025988490732314e-18)
(0.32876995902844336 0.04041831077816951 -5.835627498755572e-18)
(0.34683396244217113 0.018294295600282378 -1.802684633962494e-18)
(0.35209668266098576 -0.002745667675201975 -5.921018690370479e-18)
(0.3443142433311705 -0.02460832472418063 6.7081417750687606e-18)
(0.32270506458440057 -0.04943612563705026 7.988993501717736e-18)
(0.28596009070335854 -0.07990001392028255 5.7458253004711885e-18)
(0.23248246461003994 -0.11961663544537285 3.534907826249407e-18)
(0.1624648008545518 -0.17329943202000994 1.9549394960449906e-18)
(0.08085708928927941 -0.24182447347431396 9.435149350183658e-19)
(-0.0014476807140179017 -0.3153700484621341 3.6578375339197285e-19)
(-0.05214011918966542 -0.3751976418139929 9.432609243002465e-20)
(-0.03602391177089692 -0.28451194189442325 9.5930218171528e-21)
(0.04414968249172737 0.29484912893317955 -1.1402950670892775e-18)
(0.02178704922575894 0.30094487264878955 -4.220776025856555e-18)
(0.1383948467827811 0.20097800269169286 8.547785098123334e-18)
(0.26709787630576803 0.13858688798425434 1.8848512472908354e-17)
(0.3636549979172031 0.09370678720054447 2.6913760259283856e-17)
(0.4390774461223606 0.06157745589818872 2.6792335349160664e-17)
(0.49661946335557167 0.04049074603946612 1.543907482029739e-17)
(0.5373037794814982 0.026136404648287787 5.487774791452625e-18)
(0.5640427051860655 0.015366521885108604 1.1605138085844962e-18)
(0.579115624205364 0.006438592514811487 8.398074852500202e-19)
(0.583517826639618 -0.0018176360135965409 2.007617427802643e-18)
(0.5772994096613022 -0.010409856019712565 9.003186008595138e-18)
(0.5596163385889199 -0.02050173226499503 8.22539639785721e-18)
(0.5283875891758605 -0.03380974153836988 5.150732312560455e-18)
(0.4795417448971398 -0.05336551864102378 3.009387753187646e-18)
(0.4093312932757804 -0.0847565152815001 1.6785137175967512e-18)
(0.3150041163706444 -0.13470981103956772 8.685639383417222e-19)
(0.1777071169503423 -0.20876240351766628 3.9759626960599063e-19)
(0.033881549267751374 -0.3174885114530019 1.5043043423366764e-19)
(0.05702393127693545 -0.3169960690018828 3.607651637190712e-20)
(0.3501734552866587 0.054755522062544665 -1.2758736625820417e-18)
(0.38093474984609516 0.15579024090117227 -7.394489727537437e-18)
(0.5431591483188158 0.1275260886635853 1.650829444725167e-18)
(0.681020928942416 0.08631865791412484 1.006783381257135e-17)
(0.7515471861238892 0.05200395993940925 1.2567921261578286e-17)
(0.7929519042652936 0.030799055373841398 1.513054800981731e-17)
(0.8202601177516743 0.01942612196426852 7.144764101563727e-18)
(0.8374448756861073 0.013183501730267642 3.1017563844140255e-18)
(0.8478032451109289 0.009397022655215503 1.2302972544048247e-18)
(0.8532294014245253 0.006712951635420459 9.594911220169788e-19)
(0.8543572951618188 0.004391431689817703 2.5398964059429125e-18)
(0.8512252804087268 0.001961936280718453 1.015842875355979e-17)
(0.8434096868851607 -0.001083113264589351 5.329229723916182e-18)
(0.8296748366863269 -0.00569246727501393 2.5320414781353397e-18)
(0.8068967641304567 -0.01369957000746296 1.287570344236903e-18)
(0.770741824723239 -0.029139407748222875 6.8710408679497e-19)
(0.7118845801337095 -0.06003222973641827 3.586040632283786e-19)
(0.5838589703772682 -0.1063776294742877 1.7087490800556157e-19)
(0.3983152554033277 -0.14527258539758084 6.889296217026794e-20)
(0.3949214409887562 -0.06830281355839007 1.7827100438525818e-20)
)
;

boundaryField
{
    movingWall
    {
        type            fixedValue;
        value           uniform (1.0 0.0 0.0);
    }
    fixedWalls
    {
        type            noSlip;
    }
    frontAndBack
    {
        type            empty;
    }
}

// ************************************************************************* //
