/*--------------------------------*- C++ -*----------------------------------*\
| =========                 |                                                 |
| \      /  F ield         | OpenFOAM: The Open Source CFD Toolbox           |
|  \    /   O peration     | Version:  5.x                                   |
|   \  /    A nd           | Web:      www.OpenFOAM.org                      |
|    \/     M anipulation  |                                                 |
\*---------------------------------------------------------------------------*/
FoamFile
{
    version     2.0;
    format      ascii;
    class       volScalarField;
    location    "2.000000000000001";
    object      p;
}
// * * * * * * * * * * * * * * * * * * * * * * * * * * * * * * * * * * * * * //

dimensions      [1 -1 -2 0 0 0 0];

internalField   nonuniform List<scalar> 
400
(
0.0
-9.118841137575794
-18.819466076812297
-25.11422840572206
-27.308452210398137
-24.967278378309395
-18.170726931147588
-7.510023025098006
6.152034744629952
21.76974394694877
38.14027795501176
53.97506844779449
67.98263777007712
78.97013433674975
85.96239247974641
88.35968671171395
86.32554900941581
80.85976083412332
74.41694432048571
72.38083489703574
71.40105973377665
68.90372126659976
64.95039444011425
62.26300252881233
61.80929599355215
64.23045398343685
69.64255661850616
77.72158586850897
87.93624908245418
99.55677082882052
111.7194416135537
123.50074967950827
133.97477931824423
142.31349312765087
147.90042420531853
150.3264018382143
149.7027409261578
146.88870985546905
141.42197849272213
132.66377585601882
131.8746064542241
123.05216062942833
118.2583026485788
115.93079092159174
115.5061552448136
117.79176626961565
122.76677768530169
130.08002672815817
139.27510372828965
149.72362154720116
160.68279996407227
171.33584102612394
180.85394351764742
188.50328132178365
193.68881636616467
195.94754939015982
195.22306084575587
192.50188664293873
186.91038876845192
176.27006275667196
186.55467223458655
171.38775189534815
164.93703231575742
162.18828632198435
161.32900888907471
163.4403046893382
168.3309474904418
175.51730784555733
184.5541902020957
194.8337965933845
205.63806754674792
216.19314384592272
225.68818975306138
233.36016671325578
238.591311683837
240.77172566702947
239.70792025448745
236.5523206314288
229.85461185653156
215.79951368709865
240.90727565824017
221.37188451913596
213.70205767612137
210.6322645483331
209.49522508480544
211.60503473449586
216.6247694609504
223.96664440150613
233.185165347711
243.6852168097968
254.76683291587426
265.6684016807251
275.56900079730934
283.6670551771018
289.2780610208024
291.611056376803
290.3059102790034
286.6944788966656
278.32790173001746
259.0476838497879
291.87589196195324
267.55225439795674
258.3329761918291
254.8613955221688
253.54130536894394
255.90014671488123
261.45753518016204
269.49958789664146
279.55331169873654
291.01016281711003
303.154578266377
315.20759220095647
326.29603846879706
335.531183200908
342.1071583131898
344.98867071763135
343.6064212698697
339.5362603182269
329.37958634156547
304.8350841251307
338.27334284723986
308.7920774384693
297.9729931062065
294.2195925805756
292.9530306143835
295.936970970166
302.53301139633396
311.8737964205385
323.4473816364805
336.62221081306564
350.6312814951869
364.6796445406243
377.8009651805417
388.99589325881846
397.2816140642891
401.3316593269336
400.2914996691576
395.9898462273124
383.97802942191527
353.72590365066907
379.43832923910475
344.46213399111906
332.1958893071341
328.48920096393863
327.69756449732074
331.82804957337913
340.04584011197875
351.331469637938
365.1211482245273
380.7523445588882
397.43974579900527
414.34489381748375
430.42023250341464
444.5257315327744
455.48236723227313
461.55345901758164
461.5513270049334
457.51758816495885
443.68875360934027
406.8359817735977
414.124877413168
373.02227331348774
359.5203454277338
356.39274885841206
356.6741135058226
362.63468905501014
373.20507375468014
387.1738836583264
403.9370383521426
422.8294895620294
443.05911211773093
463.7749747349915
483.8516093191412
502.02735627191873
516.8765776606452
526.167246745777
528.2324993923853
525.3212562088332
509.93852707388214
465.3410941052969
440.70883871624665
392.62153276152355
378.3032732485743
376.591988128472
378.8223894746464
387.5424472061137
401.3629246819585
418.8676292598173
439.4319663702579
462.4139418984831
487.0866206292273
512.6103986568387
537.8587804202782
561.4634556001121
581.7390348697859
595.8681074124574
601.5126415399732
601.1149503737797
584.7710811513439
530.9500550157534
457.19739701012855
400.9050328864173
386.58462178572427
387.6664888147767
393.13697328017633
405.8934824047637
424.11412977559183
446.1423943220482
471.3828129144109
499.27887837437413
529.2524954166267
560.5912178201074
592.2350982493335
622.7974778884146
650.4011322494227
671.5223807962028
682.9071334302295
687.2269874486976
671.094685969217
606.1017555133127
460.86518264665295
394.56263510813665
381.8499556496507
387.9563782647038
398.6444923623978
417.2279010645077
441.33641273996597
469.03830033488435
499.8639752877308
533.464709441117
569.5277697298922
607.5941963557829
646.8410669094053
686.0111918177784
723.1858470150735
754.0725904799508
774.2769683601609
786.7388473089012
773.1863275228114
694.4361798859611
447.539095427289
368.7869943340094
361.1246470818084
376.0472082012348
394.9208122078339
421.86114065553437
453.74065599729624
488.40507204461034
525.7010899699699
565.6388991758377
608.3256895354972
653.8010780926392
701.668069182288
751.0349478887408
800.2321743095135
844.2892546810084
877.4876695719583
903.4990195704916
897.371547193258
801.7232785465484
410.3945184131226
316.59614493345487
320.8419715149458
350.81726055484177
382.32841557340066
421.05718525237853
463.0003899035171
506.0044891138726
550.5249636409499
597.1507552358478
646.6729407431354
699.8493289180898
757.0123680887789
817.9866097450474
881.7803833969747
943.2187017660567
995.1381829267506
1042.588293131041
1052.3343137448664
936.8112453239755
336.95170610200773
228.08506914827618
256.16825989819057
310.36528311795956
361.373460746945
416.8942364267875
471.7523656337114
524.5068993116878
576.7534821954708
630.0308446459364
686.068271261804
746.6660642999456
813.2731402635692
886.8796552279758
967.9246442183803
1052.205774270102
1131.0540594149882
1210.8887790141691
1250.9259174983727
1116.7266007701849
193.18300544118458
88.33046717149502
167.60500196288953
259.8808538531458
339.4017302425581
417.1999854695061
487.07768700409815
549.8502133711723
609.1779280512945
667.9073848534248
728.9926306595099
795.5084401541757
870.2932789331978
955.915840757113
1055.0778293759142
1166.3815746948092
1281.1441240633214
1409.6946058364417
1514.0275302950301
1388.4791199801082
-89.08193748314162
-117.8566814571117
65.28216361905136
215.21919616379088
331.69196922988834
433.84290914456295
517.7706982766878
588.5271638827909
652.4275497790188
713.9409341895282
777.3671577190315
847.0200668844387
927.2735660198508
1022.7241880995555
1138.5961350729058
1277.998609660329
1437.8330349477035
1634.2358241774346
1850.2090308019685
1821.3107052110704
-560.3159978573304
-373.97971711836703
-78.76824603060123
141.1680831061012
317.7595214169975
453.82512164942534
554.0226350674575
633.006533951011
700.3970698487129
762.79948407178
826.4078051888633
897.0365183410321
981.0567082580052
1086.1107708937461
1220.9531224072502
1399.0056541340725
1635.2622065691476
1918.220163205026
2232.0911544961914
2453.4891104113826
-1611.584954519881
-637.3822598343761
-171.7796115909452
102.75916632866493
354.8892317266879
524.0954880007464
629.01225196512
705.4785631871931
767.6188122098957
823.2713998795784
879.8328911748056
943.6865876827198
1022.0576420075737
1124.6541533325424
1264.1912114219767
1472.1855087930708
1796.9014885435365
2178.95671471395
2693.3568616399684
3796.5301831487595
-4301.74911605603
-805.350066182937
320.0138179217637
555.5498446885331
724.1411187996259
811.176859213826
846.0705611675878
872.2881037703686
898.4943262306388
925.849212687325
957.1494282577838
995.1242264327378
1042.9899109270973
1105.1369672217538
1188.0184132621184
1320.380838554353
1561.3939558544942
1925.113570097788
3088.090441564623
6778.793066012156
)
;

boundaryField
{
    movingWall
    {
        type            zeroGradient;
    }
    fixedWalls
    {
        type            zeroGradient;
    }
    frontAndBack
    {
        type            empty;
    }
}

// ************************************************************************* //
