/*--------------------------------*- C++ -*----------------------------------*\
| =========                 |                                                 |
| \      /  F ield         | OpenFOAM: The Open Source CFD Toolbox           |
|  \    /   O peration     | Version:  5.x                                   |
|   \  /    A nd           | Web:      www.OpenFOAM.org                      |
|    \/     M anipulation  |                                                 |
\*---------------------------------------------------------------------------*/
FoamFile
{
    version     2.0;
    format      ascii;
    class       volScalarField;
    location    "2.000000000000001";
    object      T;
}
// * * * * * * * * * * * * * * * * * * * * * * * * * * * * * * * * * * * * * //

dimensions      [0 0 0 1 0 0 0];

internalField   nonuniform List<scalar> 
400
(
299.74088303497564
299.54115033621173
299.60663976879454
299.71612099199365
299.80108085310644
299.8794448695516
299.95683643879767
300.0334969815933
300.10987575003406
300.1837583706959
300.25198648476305
300.31039016979
300.3521486331224
300.3696020512403
300.35189205266624
300.28814965019336
300.17277692563295
300.00968151590274
299.78435537916477
299.7739046358897
301.06011088660244
302.3506914158038
303.1807357198559
303.76499932307024
304.14559020146294
304.390361208072
304.5320340140286
304.5956839162783
304.6032498795251
304.56956120456493
304.5065314433686
304.4228832146715
304.3199444194299
304.1939609195374
304.04562625937666
303.86266348299864
303.6145382716681
303.29508128695994
302.7014656566984
301.0410656647872
300.6380971042089
301.1653127066075
302.02786125530804
302.6875363562577
303.1597255414739
303.54296749035524
303.8473575847114
304.0891817612429
304.2855086863307
304.443285339062
304.56504786130836
304.64372553669205
304.65911426532483
304.588036773306
304.41250293704525
304.1055639033089
303.62915518762264
303.0452500758944
302.2967965650207
300.632597460717
300.4743361653493
300.5275518573508
301.5272473289535
302.3018469172025
302.8809659806383
303.4105148553678
303.8777818764205
304.2915401593375
304.6642424037131
304.9943848541741
305.27551513147546
305.4870750082359
305.59032646624746
305.54871687541896
305.3350278107974
304.9165773584275
304.25457214044985
303.4690970305663
302.56416532532626
300.5737125733379
300.5384850594294
300.4176171556994
301.6177057036207
302.55307367026563
303.27480571152034
303.97347886864407
304.6197655999942
305.21603944445695
305.7696718222318
306.27000986733947
306.69935121511656
307.0253071083178
307.1975599473648
307.1698110330418
306.9081680954551
306.37267397226634
305.5174844178508
304.5162243337321
303.3892130975712
300.75296694525275
300.58553951167585
300.270482789691
301.6663672667713
302.7753954724369
303.6594776919042
304.55140436071366
305.4054353734605
306.2152885190393
306.9807594685419
307.68024231621143
308.285011025076
308.7495171230396
309.0083504918023
309.00470901774145
308.69748780328473
308.03643593113196
306.9642866309921
305.7049400526796
304.29384678354774
300.94462279838075
300.64899641434215
300.1643894486846
301.7932119488612
303.103859163764
304.1769710885989
305.29082782372063
306.38233326085054
307.4349751313561
308.4384821823446
309.35792845038617
310.1512648821236
310.76010461429433
311.1069206075813
311.12709939159464
310.7732088478149
309.9822698333422
308.6804777025328
307.1353717770547
305.37687945188776
301.18274470774685
300.7423850199654
300.1128205324437
302.0219894272735
303.5675933497956
304.8574800248437
306.2201900870884
307.5734081449324
308.88832825856485
310.143245855701
311.28808916117345
312.2653582158962
313.0080135471147
313.43334523417417
313.47234940613396
313.0725129217842
312.155776910747
310.6250579473714
308.79045490018706
306.6549024117095
301.46748589775234
300.85749786219435
300.0796022786013
302.3185165223787
304.1291796034804
305.6560404562029
307.2847583159827
308.9102163260691
310.4905538882909
311.9923914307911
313.3501415836618
314.49321470076
315.3517018316033
315.84464883776286
315.90160035349857
315.4651283159716
314.43728780037895
312.6929744873468
310.5931445283876
308.0946532394119
301.77591352318484
300.9950390919686
300.0447773598549
302.671232229762
304.7718138488174
306.541686029573
308.43634609076145
310.32460622091406
312.1522683838238
313.8770068877892
315.4212263814103
316.7049332103282
317.6614912030944
318.2185427313638
318.30440127124604
317.85297270871763
316.73886841468584
314.8042938285516
312.48578130118733
309.6859038263269
302.09063824429586
301.15603255456915
299.98042555420534
303.0674047730393
305.4733815623516
307.4713756209551
309.60884015461374
311.7250574743177
313.7581670166278
315.663887735016
317.35883154017426
318.75997994715203
319.8082876217228
320.44520088244263
320.5931330046512
320.167844650324
319.00326651970073
316.8971917511101
314.41037455547547
311.421730759267
302.3902724418854
301.34417749315696
299.8453169624881
303.49005440686534
306.1981612671368
308.3812883921683
310.7131708329033
312.9962826041968
315.17009104591045
317.19963809120344
319.00509376705105
320.50987498192217
321.66476112551857
322.4261935278124
322.70141363665573
322.37406452807653
321.2125742864362
318.9361299899718
316.30029869592704
313.2837127751845
302.64131150315114
301.5598421099168
299.59128809068386
303.94610427369923
306.9223635000975
309.2109624134593
311.66163412141333
314.02353032233793
316.25054509384915
318.3329248689283
320.20698313735414
321.8129449893197
323.1123958638032
324.074577136854
324.5793776510871
324.4604913692931
323.3835688985534
320.91541037095357
318.0722563356639
315.2257238245011
302.8211183951778
301.7811765538617
299.1957259567859
304.5158093508858
307.6804658910503
309.9426117555872
312.3983127924229
314.7191521792995
316.89072424584094
318.9435782612956
320.83941905708167
322.5476880515239
324.04731386986964
325.3149803830666
326.1911855937215
326.44357152592886
325.593138393964
322.9185479780462
319.65683993093296
317.0740777659678
302.9198415344072
302.0932525738853
298.80730397961605
305.237413137256
308.3638475473654
310.44583928711546
312.79781414404766
314.96650442099366
316.9934174843676
318.9536952533904
320.83246190251333
322.64294071414497
324.4036354782668
326.09403272131567
327.51432356003147
328.3737124129929
328.03720542003435
325.2767821763909
321.16680055258854
318.4268966344091
302.89887797526865
302.4548023631009
298.94461527182114
306.33517582651456
308.92436013497826
310.73171588950544
312.9637350839841
314.9247287413055
316.7652879245762
318.61109614421775
320.4401111155737
322.30465721249294
324.30104276839074
326.43472307675995
328.4734323829813
330.1345274272158
330.69889824469084
328.24502425199364
322.8521160675004
318.9180825414613
303.53030109668265
301.2306002694603
300.81522474138717
309.7735692731817
311.27152553775716
312.41387993384313
314.1980963286831
315.70481272245917
317.2172293755449
318.8387244102813
320.55077300476927
322.39599579872214
324.460525703072
326.7532206136755
329.1905161516203
331.5525419809274
333.16654910246746
331.7040691901643
325.080343993362
317.68149642684386
306.7511544730203
302.0305376076101
308.7425035757397
314.4503471973769
313.87338460587296
314.2472383883364
315.2371131528184
316.44304539477343
317.96323061769044
319.6926758627923
321.5602457506509
323.5843886207618
325.82656468925836
328.34512778849734
331.2231394433082
334.31273771921957
337.0063080336498
338.3396196118217
331.79924136887206
312.2469732099143
308.3870098088912
319.55112349563205
330.8359226019876
311.52106493202797
307.54891663938054
310.6318130888399
313.8527277490684
316.8756534050551
319.84944125575214
322.60810234642986
325.15914706150056
327.62221985284486
330.13917470851845
332.9059220559026
336.25011291252986
340.2929799844935
344.90196338050373
351.50017634610185
348.74804550278327
307.26851021247643
307.98397606654197
287.3962615179597
350.832229728635
343.45050186176667
339.79335258184864
341.0313277114226
341.6120156681072
341.81050502119433
342.11476634776835
342.4728305052741
342.8467140059193
343.2326910198511
343.5813335930762
343.8780437907874
344.14697801108895
344.2257139693754
343.90960760264045
345.3030064356456
342.93858276972355
314.23236181145626
365.54554200637614
)
;

boundaryField
{
    movingWall
    {
        type            fixedValue;
        value           uniform 350.0;
    }
    fixedWalls
    {
        type            fixedValue;
        value           uniform 300.0;
    }
    frontAndBack
    {
        type            empty;
    }
}

// ************************************************************************* //
