/*--------------------------------*- C++ -*----------------------------------*\
| =========                 |                                                 |
| \      /  F ield         | OpenFOAM: The Open Source CFD Toolbox           |
|  \    /   O peration     | Version:  5.x                                   |
|   \  /    A nd           | Web:      www.OpenFOAM.org                      |
|    \/     M anipulation  |                                                 |
\*---------------------------------------------------------------------------*/
FoamFile
{
    version     2.0;
    format      ascii;
    class       volVectorField;
    location    "2.000000000000001";
    object      U;
}
// * * * * * * * * * * * * * * * * * * * * * * * * * * * * * * * * * * * * * //

dimensions      [0 1 -1 0 0 0 0];

internalField   nonuniform List<vector> 
400
(
(0.00024372855591502698 0.0028366338088532264 3.9044460047549197e-20)
(0.00041550106195120743 0.005155033306465091 1.71846215785169e-19)
(-0.0007787368093032424 0.006267150792774199 7.376197990810748e-20)
(-0.0030251600800280326 0.006842910240843613 8.032919120903384e-20)
(-0.005774541024577817 0.00708504395174096 -3.2717817916095877e-19)
(-0.00865871675658666 0.007090132405301638 -1.0220706974679887e-18)
(-0.011367899795709534 0.006914993917398346 -1.2462992193707779e-18)
(-0.013641397546676499 0.006605849361012549 -1.2622380657458754e-18)
(-0.015284264676417076 0.0061999969470521435 -1.5397763787642219e-18)
(-0.016160713297201285 0.0057318357535416425 -2.148657082262616e-18)
(-0.016193153866356065 0.005236782149461582 -2.3066354619306036e-18)
(-0.015368320882180266 0.004753034898950253 -3.1031913332854197e-18)
(-0.013743475400720418 0.004323339363288627 -4.134694481352547e-18)
(-0.011450888205515377 0.00399629879658954 -4.7920153450470265e-18)
(-0.0087019493514859 0.0038272163534343313 -5.090431051732147e-18)
(-0.005797026371448697 0.0038664712827252215 -5.036524443616981e-18)
(-0.0031017890470928745 0.004132755193756056 -4.756183382078285e-18)
(-0.0010203930225855004 0.004556621912411557 -3.959004067354767e-18)
(0.0001201583890463848 0.0048425257937593355 -2.8839169088141015e-18)
(0.000508020420635622 0.003559133672288148 -1.1578091736298496e-18)
(0.0003330582931723021 -0.0006238455150576972 5.298284622355279e-20)
(-0.0013597130246778642 0.0011871198036735974 9.98019146241599e-19)
(-0.005129142621772227 0.00303650959349897 1.3308949458214116e-19)
(-0.010654861263333768 0.004256453502713353 -3.396976428535598e-19)
(-0.01720037233634591 0.0048352805545155185 -1.4854332710817177e-18)
(-0.024028325522235498 0.004802453914955981 -3.481373996095058e-18)
(-0.030430357032617115 0.004238266739954774 -3.910468023606519e-18)
(-0.03580035505495137 0.0032526173410991075 -3.4291149673548185e-18)
(-0.03967516446996467 0.00195666710508471 -4.144536661712916e-18)
(-0.041729598439094295 0.0004633537401367145 -6.9062995927834325e-18)
(-0.041784051616827786 -0.0011109613901690934 -6.3147714865306135e-18)
(-0.0398160854106902 -0.002642728122138908 -9.1052773362484e-18)
(-0.035969510931763385 -0.003997935977874383 -1.2796463969327181e-17)
(-0.030557932644824124 -0.005034355163416757 -1.4637337892304107e-17)
(-0.024064561101729255 -0.005606647411934299 -1.4502145753701763e-17)
(-0.017142780006964915 -0.005582169473093644 -1.4845383504502403e-17)
(-0.01053947159784561 -0.004887956312058635 -1.4543985885841513e-17)
(-0.004959233274610997 -0.003542800297801095 -1.1626472432359964e-17)
(-0.001353147791617132 -0.0016367394751591931 -9.130617888281804e-18)
(-0.0005007847308743425 -2.779354132196123e-05 -4.016632379185087e-18)
(-0.0008518052753699741 0.0004292074423841453 1.4997045888675534e-18)
(-0.0034941632667300397 0.004649258863678904 3.561084679357586e-18)
(-0.009727740824972922 0.008864630502586063 2.077424621384291e-18)
(-0.01830356993439242 0.01169955515064481 2.2539884094583886e-18)
(-0.028030819422233667 0.013025480133502767 6.354291349939718e-19)
(-0.038008880330912466 0.012863352332426586 -2.8756757266161285e-18)
(-0.04728248892301085 0.011374837004501726 -5.054808565670949e-18)
(-0.05502076014578166 0.008813297505976142 -6.245212056800437e-18)
(-0.06058741225621708 0.005455855892440263 -7.996062241962067e-18)
(-0.06353528632865858 0.0015920219838521151 -1.046724492288744e-17)
(-0.06361748803543119 -0.0024756245976150964 -1.1504229626669341e-17)
(-0.06080209959667354 -0.006427571226487059 -1.4164547966885724e-17)
(-0.055286178609768664 -0.009924322041490987 -1.8739860241515942e-17)
(-0.04749607444970098 -0.012615347462803067 -2.178423875917777e-17)
(-0.03808249682507725 -0.014159904165616589 -2.2797422802581015e-17)
(-0.027926719683282482 -0.014266559862527466 -2.330167292254199e-17)
(-0.018035704891791446 -0.012782702739976639 -2.2015035254802105e-17)
(-0.009319069840159717 -0.009769682017832172 -1.8613833501838903e-17)
(-0.0030511958812555738 -0.005518015607220044 -1.3325713404894455e-17)
(-0.0006560145439685939 -0.0011186937547372276 -5.242060932302188e-18)
(-0.001472736438266217 0.003053601996767301 3.973472688986113e-18)
(-0.005155208804440954 0.011245231173285044 4.835053675691097e-18)
(-0.01396845666784016 0.018455081883656056 2.6336263363638555e-18)
(-0.025592699475247522 0.023221810618447223 2.292959533643546e-18)
(-0.03834846847519878 0.02532625399949159 4.443822605265217e-19)
(-0.051212458823356684 0.02481960758603638 -3.248826467592454e-18)
(-0.06303829674110951 0.021985886168538665 -6.532836735049119e-18)
(-0.07283679089140027 0.017258434473009746 -8.224762314663437e-18)
(-0.0798639145443534 0.011121522026127408 -1.0968436929276614e-17)
(-0.08359348132647147 0.004087109080607745 -1.560703569794385e-17)
(-0.08373289833238427 -0.0033080128124191653 -1.5161167316994502e-17)
(-0.0802382436366357 -0.010497884865102078 -1.7079590117881662e-17)
(-0.07332828000134385 -0.01688587967628278 -2.6085130330647684e-17)
(-0.06349233458889565 -0.021858949576945095 -3.064796577281348e-17)
(-0.05149034068228776 -0.02482898158085475 -3.0936883824676677e-17)
(-0.03837425373835152 -0.025299416712034832 -3.294846714226909e-17)
(-0.025378405503858035 -0.022998264180757094 -3.140221488850265e-17)
(-0.013633846935514164 -0.017986864158034653 -2.7323264885400164e-17)
(-0.004857731519528978 -0.010716883811963755 -2.0194494604879833e-17)
(-0.001211637895096644 -0.002772396496466898 -8.846482083198444e-18)
(-0.0019460331563765287 0.006138777540038598 4.863219604960129e-18)
(-0.006787503415882572 0.019134067974813318 6.98212960232754e-18)
(-0.018151289181140437 0.02980404909941117 3.502971230595608e-18)
(-0.03277718497772504 0.036642644989979475 4.233664020221082e-18)
(-0.04849500853325608 0.039417490467263006 2.453311009475017e-18)
(-0.0641244086351765 0.0382861087146711 -3.2917949226863175e-18)
(-0.07834783987672217 0.03370708101953534 -6.282449362040598e-18)
(-0.09005787025356198 0.0263259983580689 -8.479915158621241e-18)
(-0.09844041607724259 0.016860425959884948 -1.1816575342139907e-17)
(-0.10292103424839351 0.006065227556317905 -1.7067987045386265e-17)
(-0.10317330466006593 -0.005270500899727079 -1.653462499556122e-17)
(-0.09913270453207423 -0.0163163436220999 -1.9749604049290778e-17)
(-0.09101365141829075 -0.02619516806435118 -2.843251382547712e-17)
(-0.0793274321754568 -0.034002019810609345 -3.386118743508044e-17)
(-0.06489711986078134 -0.03885613461792397 -3.5771343348211236e-17)
(-0.048911216504524 -0.03999723842853427 -3.6597161415683056e-17)
(-0.032809862100539024 -0.0369592449007561 -3.4249337327848873e-17)
(-0.017942157748577586 -0.02971130443037823 -2.9905626852844275e-17)
(-0.006574132534088181 -0.01872214146723915 -2.2021497131007477e-17)
(-0.0017958193870638265 -0.005788694186640755 -9.848561951778303e-18)
(-0.0024634913829687925 0.010121949775301188 4.0063208691254e-18)
(-0.008457496595987187 0.02917886389828647 1.2077371861297097e-17)
(-0.02239715078614026 0.04401004679691838 8.581000670866204e-18)
(-0.040066200784698025 0.0531416232141546 8.700365738849847e-18)
(-0.058755359335128536 0.05648736350993203 8.791081813572917e-18)
(-0.07711068637964638 0.05442310136591814 1.8899600690542034e-18)
(-0.09366023708957912 0.04766028805866454 -5.149629215836361e-18)
(-0.10720785571191849 0.03711081611105837 -6.961133561466965e-18)
(-0.11690329698977173 0.02375510667943089 -1.0374728139504106e-17)
(-0.12214849165871287 0.008603158932259767 -1.543568319378063e-17)
(-0.122593533506213 -0.007296637001500615 -1.4484562547105835e-17)
(-0.11814264785946725 -0.02284536377569951 -1.698306175006747e-17)
(-0.10897634502769787 -0.0368695117531477 -2.5325204825521416e-17)
(-0.09558543894781649 -0.04813962792903182 -2.825023423370357e-17)
(-0.07881101872808452 -0.05542680842243674 -3.0507398951980305e-17)
(-0.059946226828687554 -0.05762684475294452 -3.3590633733191455e-17)
(-0.04063298128760327 -0.0539757455017903 -3.087352349315899e-17)
(-0.022460981434692967 -0.04424515724163413 -2.710377191555311e-17)
(-0.008316119034058595 -0.028834960837367175 -1.8323042525688906e-17)
(-0.002312151726573928 -0.009667511493277051 -1.0005193781725956e-17)
(-0.00300162668954806 0.01503715619523647 3.104465225579315e-18)
(-0.010202244507126413 0.041453285215623206 1.0668200135449003e-17)
(-0.026839085912319594 0.06113828061390934 1.0093723310499664e-17)
(-0.04764820836570098 0.07275622300255859 1.3363517798634759e-17)
(-0.06933539862757693 0.07652604472348751 1.41915914023637e-17)
(-0.09037643878208507 0.07317580084923787 8.157502422003083e-18)
(-0.10916764900885075 0.0637702329619137 5.5959008495009585e-19)
(-0.1244636840143627 0.04954906405766937 -3.4642986169704135e-18)
(-0.13542038618799868 0.031782197534820554 -6.664395327326868e-18)
(-0.14144605768455482 0.011738684024625022 -9.240239048345572e-18)
(-0.14218007650837214 -0.009290955153147222 -9.630631319172245e-18)
(-0.13748662712092632 -0.02994903068264795 -1.0457735139679988e-17)
(-0.12747763159683267 -0.048769850394719504 -1.4862982425006928e-17)
(-0.1125719959913072 -0.06417614647039867 -1.728217805154961e-17)
(-0.09357129808411897 -0.07453294693241858 -1.765299965720747e-17)
(-0.07182692407943492 -0.07828870327929723 -1.878786368189845e-17)
(-0.049162794623328725 -0.07424881153052389 -1.684725062386342e-17)
(-0.027434963083100002 -0.06183285463429621 -1.3086808746560913e-17)
(-0.010247998229973757 -0.04123145109075264 -9.646317175859293e-18)
(-0.0028804707580430927 -0.014458320486050764 -4.180895761018565e-18)
(-0.003600130923619685 0.020904241897492685 1.149897711593596e-18)
(-0.012114691422997717 0.05598958148654297 1.4462899380884915e-18)
(-0.031618535201773705 0.08118655526487015 7.948570589725653e-18)
(-0.05565858460000976 0.09540532310747178 1.1522857206984823e-17)
(-0.0803051895774202 0.09936180922294978 1.1783708281598601e-17)
(-0.10388601907238396 0.09430507679986284 8.335782247737037e-18)
(-0.12471436833572153 0.08177359516733156 3.4582158105790315e-18)
(-0.14155755279961132 0.06340352396557271 -4.416856963587821e-19)
(-0.15363581333397644 0.04077619324302486 -3.38027436108893e-18)
(-0.16041297596046802 0.01540155110335575 -5.3277985033685195e-18)
(-0.16153924670731393 -0.011221181466440926 -6.127538208563698e-18)
(-0.1568293086816509 -0.0375175128318863 -6.844493427597373e-18)
(-0.14629173535772627 -0.06175586862939386 -8.427357128859647e-18)
(-0.1302059349673981 -0.0820069861375761 -8.014351961541473e-18)
(-0.10924664051279485 -0.09617111055714979 -3.563568947806735e-18)
(-0.08474425293579765 -0.1021301203349468 -7.850149731831088e-18)
(-0.05865299412539424 -0.0980795068735655 -6.390185250366144e-18)
(-0.03308363329651437 -0.08287715825328457 1.4196686550812287e-19)
(-0.01248628596740174 -0.056289178270676615 -2.6873050454391163e-18)
(-0.003560043871956513 -0.020339332773225974 -1.4385457630271012e-18)
(-0.004300980393856129 0.02785101984707989 5.254350838801961e-19)
(-0.014263245664451306 0.0730040568743818 -5.130509829958123e-19)
(-0.03683193256071279 0.10431879253749415 7.831159102787963e-18)
(-0.06413377139423979 0.12111453125041285 1.2728918972953422e-17)
(-0.09154538429136769 0.12487498978543961 1.3651081483100167e-17)
(-0.11730957052705672 0.11758961533861163 1.0382643396267648e-17)
(-0.13974072683531155 0.10141740197236943 5.794015221703302e-18)
(-0.15771424675628568 0.07846588834397691 1.895941325181783e-18)
(-0.17060857977354787 0.05063577159086603 -9.805783847608225e-19)
(-0.17800892361675483 0.0196414017047901 -2.7462901065068364e-18)
(-0.17961286275602573 -0.012875672820961786 -3.4312302509555657e-18)
(-0.17519012109703433 -0.04519871802882242 -3.836935128143401e-18)
(-0.1646040585838999 -0.07539447877256233 -4.8337619023242524e-18)
(-0.14790984505955215 -0.10120519617212313 -3.8197625604190725e-18)
(-0.12553439472655575 -0.12002416277309007 8.794468370171468e-19)
(-0.09865401552388248 -0.12903389526610787 -3.2988545830385396e-18)
(-0.06923830370727378 -0.1255910435692659 -1.9616725762618223e-18)
(-0.03959308013326837 -0.10769770979844563 4.198067919387646e-18)
(-0.015148625822582697 -0.0743762409725598 9.325804689941081e-20)
(-0.004400797728365254 -0.027502353063642928 -3.924682586849271e-19)
(-0.005152267041190871 0.03603407818743763 1.486796970863595e-18)
(-0.016722352817011888 0.09273358880741592 4.601022450774733e-18)
(-0.042550373300986974 0.13062940095561687 1.0546894499383773e-17)
(-0.0730041793402463 0.14973024725049075 1.833637701097871e-17)
(-0.10271201199661997 0.15268011628816558 2.0243340032164537e-17)
(-0.12995744009852914 0.14249945612040082 1.392250989160009e-17)
(-0.1531965240233134 0.12214230854111333 7.783433208268777e-18)
(-0.17155769872323143 0.09426005676285638 3.458147062070567e-18)
(-0.18470133532582522 0.06106243562705894 3.8428665658942884e-19)
(-0.19243040485397558 0.024402580461853493 -1.4417034689950684e-18)
(-0.19454734674219692 -0.014040165434628545 -1.711286137146344e-18)
(-0.19079140241922732 -0.05252561094993932 -1.7144283677481087e-18)
(-0.18084865399390354 -0.08903089612545391 -4.072865945324198e-18)
(-0.16445215234821278 -0.12104527524624906 -4.535088956609394e-18)
(-0.14162026698416086 -0.14545329329492754 -3.849272555750161e-18)
(-0.11317240531847927 -0.15860583136503453 -4.756507966912656e-18)
(-0.08088835739803628 -0.15674239106729443 -3.0516902395150342e-18)
(-0.04710449576902916 -0.13659905821329532 6.773255406328637e-19)
(-0.01836146416479215 -0.09594946012863399 -8.569042229716169e-19)
(-0.005479257120867939 -0.0362101034424923 -6.953645359002289e-19)
(-0.006244258071436571 0.045659327145552105 1.5228036927275978e-18)
(-0.01960877073556153 0.11543739039182256 2.4893240365780135e-18)
(-0.04884862902409981 0.16008849978132839 1.1017825781854514e-17)
(-0.08208027058519136 0.18080951134120782 1.5867413339936324e-17)
(-0.11317235583442199 0.1819928844736367 1.7901448963588983e-17)
(-0.14068283618753602 0.1680646113772265 1.4199753671863798e-17)
(-0.16342630468931282 0.14296642737663548 8.00301789855818e-18)
(-0.18098081830164112 0.10995048892332429 3.980785830994967e-18)
(-0.19345210490592346 0.07149350035589679 5.682729734208242e-19)
(-0.20097713450172336 0.02947928039731315 -1.9514621787680076e-18)
(-0.2035403966511488 -0.014514055652508944 -1.9048977475145814e-18)
(-0.2008880884996938 -0.058893516578800154 -2.84357717901504e-18)
(-0.19251251329058222 -0.10171974237845362 -6.426942428998137e-18)
(-0.177736871715811 -0.14037948359076113 -7.135011824472942e-18)
(-0.1559803624954769 -0.17131942648705947 -7.737062426381746e-18)
(-0.12742475641342302 -0.18997057858276895 -9.686042308212043e-18)
(-0.09332480814455428 -0.191145961752436 -6.9187121627440065e-18)
(-0.055707810035123026 -0.16975750095983697 2.2767567279119967e-18)
(-0.022281785026700203 -0.12154104800003154 -4.018985818384958e-18)
(-0.006912415343996888 -0.046818304265221385 -2.55440568365484e-18)
(-0.007766195632201329 0.057047454892080345 3.3520475805189427e-18)
(-0.023140850054268268 0.1414157593776103 9.563104359037343e-18)
(-0.05582949034149917 0.1924539679965928 1.451047381970906e-17)
(-0.09100131917716044 0.21346232943096893 1.5609837971467442e-17)
(-0.12188420910382336 0.21145493846351734 2.0778998209925746e-17)
(-0.14772314148172777 0.19271714784177207 1.6863366078630016e-17)
(-0.16800236053500114 0.16236111446189858 6.2411516272778515e-18)
(-0.18299788850891982 0.12424993063605108 4.105278910900197e-18)
(-0.19344440408155977 0.08103007418075063 4.623800973836479e-20)
(-0.19993367113225421 0.03447050058598484 -5.265221106364015e-18)
(-0.20271738800691197 -0.014136013726312235 -1.4546185428459938e-18)
(-0.2016099223442568 -0.0635546148641756 -1.638143014591755e-18)
(-0.19593315307819317 -0.11216808301232704 -1.1807293465135633e-17)
(-0.18455033435211865 -0.15750598298254676 -9.165080900266816e-18)
(-0.16610247957333504 -0.1957701943461554 -1.0874983724211956e-17)
(-0.13980120774774146 -0.2214977312397526 -1.9526688754977076e-17)
(-0.10588023589669672 -0.22778783293701751 -1.7327832711582277e-17)
(-0.0654248204436471 -0.2070274478810095 -8.713805546632183e-18)
(-0.027155544824755608 -0.15170114655614517 -1.4824357202263616e-17)
(-0.008924194546242594 -0.05980865393666538 -9.31803683383832e-18)
(-0.010115747096950053 0.07072296647547327 5.638997220073284e-18)
(-0.027726570575523492 0.1709908040752534 1.8346481867288296e-17)
(-0.06361058798051734 0.22710162442012213 2.1699594643820614e-17)
(-0.09907711736289504 0.24612182635845012 2.7387447283574338e-17)
(-0.12714389968381895 0.2389188548892808 3.275291352870966e-17)
(-0.14842550570296223 0.2141259399363771 2.7606394220276236e-17)
(-0.16348149437463566 0.17814154651190314 1.3966453134497897e-17)
(-0.1735576658153046 0.13534964296598453 6.386556326668849e-18)
(-0.18017961935719026 0.08839217679536142 1.6898112579956289e-18)
(-0.18448361776747035 0.03872690817215741 -3.901794706198044e-20)
(-0.1870597996913551 -0.012845006310666674 3.1855423202080978e-18)
(-0.18786320548054322 -0.06567943843729354 1.0503856984807186e-17)
(-0.18612397441065417 -0.11876516995711808 -9.046027834650972e-19)
(-0.18028746730935888 -0.17011918136765955 -4.607026584984493e-18)
(-0.16812592659486503 -0.21606904314910702 -6.855354154931289e-18)
(-0.14756728143040265 -0.2505075839137983 -9.450246750270847e-18)
(-0.11719542948681007 -0.2646723086873174 -8.943708689058543e-18)
(-0.07609779418807486 -0.24764194177417598 -6.7024360929784705e-18)
(-0.03337734334695019 -0.18692111873889397 -6.473121276149014e-18)
(-0.011971593032603253 -0.07587254289109127 -3.1169374512225025e-18)
(-0.014018104081815516 0.08770056867996275 6.314162074209734e-18)
(-0.03398739196702883 0.20444463357073378 1.841906202629151e-17)
(-0.07210089791554528 0.26260133777328104 2.5838300426443204e-17)
(-0.10484856262337945 0.27608448495321963 3.402276421118987e-17)
(-0.12607366434276793 0.26109339516913066 3.682329860855518e-17)
(-0.13877324330144097 0.22898058844169736 3.0465655294400935e-17)
(-0.14503897100827676 0.1873713411083284 1.7281172600691693e-17)
(-0.14731573496071393 0.14090121307396292 6.598280081109448e-18)
(-0.14798786015965096 0.09191591737918958 1.1269579941223713e-18)
(-0.14872816485760953 0.04132448942188741 9.40873997198371e-19)
(-0.15046885826599368 -0.010758482940254195 3.590588233499516e-18)
(-0.1533713358399129 -0.06448263728150448 7.855429918687449e-18)
(-0.15671635914331655 -0.1197144798664268 3.1202000931427675e-18)
(-0.1587191788526431 -0.1753627027768774 -3.9659296578668815e-19)
(-0.1564010163875044 -0.22844736036938376 -2.7013131985607455e-18)
(-0.14626263091404224 -0.27282622104738924 -4.277888361506843e-18)
(-0.12461110583779683 -0.2981232387179188 -4.548618943166118e-18)
(-0.08703607191316301 -0.28955185361677954 -3.911270361662634e-18)
(-0.04149467336686682 -0.22752368434167794 -3.1427990834483436e-18)
(-0.016850292630540255 -0.0963149371578784 -1.3129786646964197e-18)
(-0.02054371964924113 0.11005976126127512 6.150615833457937e-18)
(-0.042789233227342405 0.2417032736424646 1.723595590415261e-17)
(-0.08042751656860717 0.2957352871839265 2.6964282422599798e-17)
(-0.105063507956105 0.29856861593050904 3.800568007954307e-17)
(-0.11358039891179694 0.2729630257486304 4.2758235411686835e-17)
(-0.11253415193365293 0.23277536970070256 3.520606709184984e-17)
(-0.1058866233907547 0.18639112298308813 1.8425892020865757e-17)
(-0.09733990577342484 0.13815356805689483 2.4281205196845015e-18)
(-0.08998055279135563 0.0896953727624428 -3.7899921926305346e-18)
(-0.08581550113563237 0.04113557763600767 -7.983345366979032e-20)
(-0.08600008400446416 -0.008224971013738739 2.490542458625066e-18)
(-0.09091433040441863 -0.05942200234886392 7.929606506125929e-18)
(-0.10007426391654575 -0.1133590794543307 5.991970332203336e-18)
(-0.11183354505966561 -0.17018397945948438 2.9153702269097607e-18)
(-0.12291797996944011 -0.22828795247781564 4.901378399141532e-19)
(-0.1286919385323593 -0.2825434957831293 -1.109177862987179e-18)
(-0.12300711803094684 -0.32199414420692984 -1.830617653938733e-18)
(-0.09634367747852664 -0.32826123907162047 -1.868747130396279e-18)
(-0.0522879006692521 -0.27287302268381436 -1.4830601323477155e-18)
(-0.02473095873638928 -0.12344618411806624 -5.920435514408093e-19)
(-0.030887126165558228 0.14019537231078147 5.004199935147829e-18)
(-0.05479402458527801 0.2809259896474845 1.555827431017059e-17)
(-0.08536971784196956 0.32109629027024844 2.5606592286565484e-17)
(-0.09249702019242723 0.3072721175937984 3.761000204047246e-17)
(-0.08036637202744992 0.26876257668760967 4.3679162172140384e-17)
(-0.05984491000645267 0.2209628064421567 3.7147330488368006e-17)
(-0.03648789768700897 0.17197632449457345 2.071058099705544e-17)
(-0.014848851169441223 0.12497229478658368 7.696086607369348e-18)
(0.0018263705574669117 0.08038183586887383 1.33680072298237e-18)
(0.011667619228399081 0.03735367920624491 2.036684588217808e-18)
(0.013588860409553852 -0.005619409525492639 6.178492322043716e-18)
(0.007072420571160875 -0.050360652519907824 1.3658097758146128e-17)
(-0.007801175185698824 -0.09874673457034089 9.668012939019001e-18)
(-0.030015884849687625 -0.1522975141634753 5.584456107434815e-18)
(-0.05685345229565059 -0.211354258232679 2.707588804004254e-18)
(-0.08357150076872635 -0.2732316647556121 8.649844825541007e-19)
(-0.10252651979216634 -0.3283912299319888 -1.588981129495691e-19)
(-0.09850545540280706 -0.3561442971958433 -5.726982071982336e-19)
(-0.06553711819834136 -0.3191825074280353 -5.649349467763255e-19)
(-0.03694795303765056 -0.15906663459279044 -2.3747440175211923e-19)
(-0.04278038483003061 0.18109565556554588 2.580010461817682e-18)
(-0.0647112879219745 0.3159699426136922 1.0416010470585421e-17)
(-0.07510177824696143 0.32900832334447716 2.1715654716723162e-17)
(-0.05155922271988467 0.2941628911065938 3.430200780505901e-17)
(-0.01044453281723494 0.2425119389139628 4.175611926301509e-17)
(0.03399450136031777 0.18964802760016772 3.758292170174392e-17)
(0.0757094209229198 0.14205778492328558 2.112232366119566e-17)
(0.11042259612677083 0.10046934833227608 7.370243969242656e-18)
(0.13577473615276653 0.0636338810995172 6.078854000319787e-19)
(0.15074957353909213 0.02972960859291468 1.4146071755483721e-18)
(0.1547531734568707 -0.003333929507405093 6.238709702476278e-18)
(0.14730636253756127 -0.03781924508317896 1.9066024090367897e-17)
(0.12800385204002446 -0.07617863343025078 1.1542321746501935e-17)
(0.09677460526367396 -0.12100481895687425 6.872071272940289e-18)
(0.0546608446775618 -0.17472839914251642 3.858570345692438e-18)
(0.004868867532747856 -0.23847210416002723 1.916524219945712e-18)
(-0.0453459661307916 -0.30680108592171174 7.517292230582616e-19)
(-0.07776420552750805 -0.35993615949013935 1.483213189897451e-19)
(-0.07284256864620237 -0.35858222923849603 -7.315249076532457e-20)
(-0.04939066721405367 -0.20768447873399123 -5.560110705718889e-20)
(-0.035506941787573305 0.2475939044058906 -2.4213767032475563e-18)
(-0.05201686852596609 0.33388849433193335 5.836397121866593e-18)
(-0.01900286264941147 0.29284229429394165 1.5939058460952902e-17)
(0.04913368302733214 0.23764066434158682 2.7371631735367103e-17)
(0.12232089326382126 0.1809181806378117 3.406264629938358e-17)
(0.1895356893437589 0.1319214096803049 3.4394927280674824e-17)
(0.24603042129155037 0.09369031983753542 1.8445338525422108e-17)
(0.2893288571531387 0.06373891424175863 -1.6903321065442443e-18)
(0.31940030547893794 0.03919055931205205 -8.880520092983059e-18)
(0.33686498606850623 0.017771549928736127 -2.3605825676743907e-18)
(0.3420019825427493 -0.002537668315389264 9.236280295019142e-19)
(0.33457097324713153 -0.02371740104036277 8.96168361755917e-18)
(0.3137523248668375 -0.04797265020295011 9.255535544849377e-18)
(0.27816295452964107 -0.07801705550036521 6.540481441298926e-18)
(0.22610356291232755 -0.11749360559015626 3.988715814027407e-18)
(0.15764108757157724 -0.17112968494638484 2.1966661819429597e-18)
(0.0775883277475778 -0.23979492517183548 1.075050178012107e-18)
(-0.003272724743128666 -0.31368040738396435 4.435321564585457e-19)
(-0.05282776039795025 -0.3740659995133963 1.3944707780285443e-19)
(-0.03620789257269258 -0.284126397844963 2.4591626909494955e-20)
(0.04420023530842169 0.2949763795182779 -1.1599485847216133e-18)
(0.021718425125840768 0.300869305097332 5.277392967505073e-19)
(0.13788247366226603 0.20056463638675207 8.661362553794932e-18)
(0.2658059210397837 0.13788493872584337 1.8888288414466513e-17)
(0.3613144302629824 0.09281351847937007 2.7497530569005113e-17)
(0.435555925848891 0.06062461011487272 2.83095902453167e-17)
(0.4919242611568959 0.039609023743545205 1.6305719256501155e-17)
(0.5315781881423455 0.025429505340908286 5.3146472477830866e-18)
(0.5575426427254391 0.014905598245899848 -1.9673412751191992e-19)
(0.5721665566660541 0.006261085077845783 4.600968996489348e-20)
(0.5764801044936321 -0.0017070568353304537 2.92441402232702e-18)
(0.5705301517396852 -0.010037501699756693 9.762156322901789e-18)
(0.5534347084694515 -0.01991640531547647 8.80305430639579e-18)
(0.5230501762096799 -0.033075630477611195 5.5417672639514614e-18)
(0.4752199112097307 -0.052554447127820945 3.232351839477785e-18)
(0.40610267927219074 -0.08394332953959616 1.790683458595001e-18)
(0.3128480758154551 -0.13396104269822998 9.224278695755074e-19)
(0.1765276463331112 -0.2081477389740175 4.2445369529968556e-19)
(0.033467873552493976 -0.31712055956872687 1.638213992207501e-19)
(0.05694074981824607 -0.31692613859508795 4.000748844451182e-20)
(0.3502552258456968 0.054846221694829785 -1.414932047325524e-18)
(0.3810592992516688 0.1558468429791113 -7.229364552550934e-18)
(0.5431752435363484 0.12747391441087197 1.2443672439822627e-18)
(0.680738435275029 0.08615732562417032 8.506636377575475e-18)
(0.7508069470670099 0.051766416938226006 1.6153999662110788e-17)
(0.791679981233623 0.03053498412154636 1.7455812844419873e-17)
(0.8184641374223868 0.019183364625797325 8.570404472034444e-18)
(0.8352016644191925 0.01299672813703092 3.2662023010946557e-18)
(0.8452401847101162 0.00928695740444157 8.666008517429842e-19)
(0.8504995863302176 0.006687097322243845 6.226952400857392e-19)
(0.851621626231175 0.00444802081823499 2.526885338153076e-18)
(0.8486366009682291 0.0020881266964037437 1.0248059790677429e-17)
(0.8410977817349224 -0.0009058230812681698 5.443648040450296e-18)
(0.8277357363908656 -0.005486534634763752 2.6199153497777166e-18)
(0.805385429312152 -0.013489109361798849 1.3386585380570017e-18)
(0.7696711632233602 -0.028945081856545384 7.118285623343225e-19)
(0.7112272694549598 -0.05986932388449294 3.691963125708322e-19)
(0.5835536796931433 -0.10625602222348968 1.7522626428508403e-19)
(0.39826091466665237 -0.14521991128796574 7.068845362797293e-20)
(0.39495056327650774 -0.06832837196308333 1.8269844440908747e-20)
)
;

boundaryField
{
    movingWall
    {
        type            fixedValue;
        value           uniform (1.0 0.0 0.0);
    }
    fixedWalls
    {
        type            noSlip;
    }
    frontAndBack
    {
        type            empty;
    }
}

// ************************************************************************* //
