/*--------------------------------*- C++ -*----------------------------------*\
| =========                 |                                                 |
| \      /  F ield         | OpenFOAM: The Open Source CFD Toolbox           |
|  \    /   O peration     | Version:  5.x                                   |
|   \  /    A nd           | Web:      www.OpenFOAM.org                      |
|    \/     M anipulation  |                                                 |
\*---------------------------------------------------------------------------*/
FoamFile
{
    version     2.0;
    format      ascii;
    class       volScalarField;
    location    "3.049999999999997";
    object      p;
}
// * * * * * * * * * * * * * * * * * * * * * * * * * * * * * * * * * * * * * //

dimensions      [1 -1 -2 0 0 0 0];

internalField   nonuniform List<scalar> 
400
(
0.0
-9.4930246358636
-19.910840077107686
-26.89016537614318
-29.589644235129672
-27.50323447497384
-20.688176164203025
-9.747268865025623
4.412222552453957
20.664950434074406
37.71984266696803
54.198714418071674
68.71150259673297
79.9775214351466
86.95743890804084
89.0517417181069
86.44977409100179
80.26105263084679
73.10027928646113
70.74857623860196
71.77037224154164
68.89665448263689
64.50527255038958
61.424172795784756
60.641416512788545
62.85367456080035
68.1914280867434
76.33833281572453
86.73611802226883
98.61899461800935
111.07774318878991
123.13210791776955
133.80293625091116
142.21903238995392
147.72509838349583
149.9168414085731
148.9346554979002
145.69283268290494
139.78674470146507
130.71349368277419
132.9862351041944
123.46376282879292
118.22652180045446
115.53494815853958
114.77954103040378
116.8338364177779
121.68576325465557
128.97610045329878
138.2360230549497
148.814713241629
159.93173184119505
170.73293276822054
180.35085568782534
188.00309236920967
193.0776189327477
195.09227031105874
194.0099409088455
190.88852713447096
184.8422149755252
173.60873412176306
188.3965411358312
172.17649199646198
165.22485073096456
162.09765261491688
160.87443539200578
162.72402895134837
167.43973131588044
174.53813213143718
183.55976891793304
193.88532228795972
204.77003886256458
215.40338839847516
224.9359997210403
232.57399250745783
237.66560562283746
239.58581062304157
238.13855129018108
234.56430852445973
227.35177675042806
212.36953779764914
243.31739047827563
222.44392598125043
214.2441743577769
210.8003017868001
209.2709196162367
211.08538223757785
215.87949397803334
223.06104939523053
232.17950193501085
242.63623749418426
253.7148096785614
264.6235731061207
274.5083137030057
282.5413727421178
288.00000825024586
290.071011903164
288.36780345187145
284.34377917730677
275.4176013902814
254.9356147377009
294.5668113893215
268.7406862965816
258.97551460627983
255.12419751768573
253.38648748824326
255.41778932111927
260.701428938836
268.5233768559453
278.41100553762016
289.7606297035884
301.85009199008886
313.87179305595185
324.9213375555665
334.0858715385568
340.51688688002514
343.14944258373845
341.3717267921371
336.88943025351745
326.14678410285364
300.21129042106656
340.89069114894386
309.8864434906575
298.53774164617494
294.4061558564802
292.7081120018467
295.33765018122347
301.6159193085514
310.68746487821636
322.04433013692113
335.0596648152549
348.9878536852179
362.98494556613014
376.06939821385623
387.21107432014196
395.38735681162
399.2200079519719
397.8152755289873
393.1270392744296
380.53568300552433
348.8197170774349
381.5912212355847
345.2308269616399
332.49079867657036
328.4328872880151
327.21298398246455
330.9692920827113
338.83710474791656
349.80742558136416
363.33411325322766
378.77150162490216
395.35712140443883
412.21048940733624
428.2685458539694
442.3645346769216
453.26541697234416
459.19182872960187
458.88772071643524
454.52912086389927
440.1789370182884
401.91707505801566
415.43832053280335
373.26019360829434
359.38506825925225
355.94350098376697
355.8259961940755
361.4080783762416
371.59853759549577
385.2124382657706
401.6741725971665
420.33879347827605
440.4514813599685
461.121849838391
481.2182941964708
499.44152224433
514.3140119490712
523.5575406698831
525.4246078350606
522.2885213759043
506.48991929084093
460.67153180777495
440.9001854387344
392.1799740757325
377.62074540391706
375.653653566265
377.53370046933657
385.87988153475504
399.3034598919393
416.4175172414838
436.6400323952301
459.36493799402575
483.8990469982345
509.3938203397703
534.700219483114
558.4160017856407
578.8162426381305
593.0137709148684
598.5962147155368
598.1055578805394
581.5006206159992
526.7655516562821
456.08518731297795
399.7104236349463
385.3075997985213
386.20025891549244
391.3985815464473
403.79511656216437
421.60520699088147
443.20927990696663
468.0673745522366
495.67847691069557
525.4990962394862
556.8196376162372
588.5671686116222
619.3158619541687
647.1447636335868
668.45480575695
679.9468049180298
684.3112040017437
668.120825288546
602.6263560486394
458.43657039665385
392.6570899614091
380.0294814865963
386.0397580649505
396.5452325482695
414.8079097860672
438.49583271989485
465.74044501097035
496.1413541346861
529.4140230485438
565.2887570829092
603.3439708495418
642.7332695573183
682.1607221298949
719.6540147004448
750.858859940782
771.3281689778389
783.9828799815168
770.5927098138703
691.838679796357
443.9922224040568
366.3413526972572
358.92568473161555
373.86868368944585
392.66994630160576
419.3303926499732
450.7791073767688
484.94768499843735
521.7597387767822
561.3117669901137
603.77919098288
649.2352558026851
697.2728443377238
746.9582185574073
796.5473112056425
841.033818133609
874.6302721499333
900.965163457361
895.2083041400579
800.1007782728851
406.1282700814243
313.89307600028593
318.541820129862
348.6742680845224
380.2226501658456
418.7199709111204
460.2161251019564
502.66470260119235
546.6225226222142
592.7990534071648
642.046289393047
695.1843561357366
752.544932923122
813.8881433510655
878.142837985409
940.091754185807
992.5032245604739
1040.357133059312
1050.6295146350908
936.1731098567308
332.56136051793254
225.51446805899488
254.14416843437021
308.64480997448527
359.79460737730756
415.09923308113815
469.46990611899446
521.5827987421831
573.1772022505817
625.9124844480143
681.6082902529864
742.1423057590714
808.9639155555253
882.9785087624717
964.5399798037744
1049.3864619155238
1128.7961711925846
1209.0365947339935
1249.6717971510338
1116.972056569702
189.33912139543702
86.30056606292531
166.25814803652088
258.97036051255
338.6960246379449
416.2624503142606
485.580033105648
547.5985406024628
606.1505998806196
664.2350804177772
724.9043966805057
791.3113062130595
866.296833323513
952.3537200949794
1052.0754067677767
1163.9750013921957
1279.3312862864325
1408.248015805865
1513.1837072921746
1389.420955673489
-91.75033901632996
-118.9783196186536
64.95931056162902
215.44220340868483
332.1366606441904
434.0158184386411
517.2818369327035
587.1496940100302
650.1397474207744
710.8711491346471
773.7517655945309
843.1999123056819
923.5964277002661
1019.4680468500835
1135.9209118823817
1275.9684456267685
1436.4346345290928
1633.182944670693
1849.686678231389
1822.609713852788
-561.4208021683608
-374.007242410341
-77.95011721033696
142.5539719349065
319.29918968500795
455.0181261037673
554.4587024337809
632.4477622883055
698.8106180919276
760.3130973669865
823.2605036994051
893.5717444858784
977.6284981188227
1083.043471323934
1218.4836046924647
1397.2477617543618
1634.2092978478495
1917.615016257687
2231.8644589663577
2454.6798589767363
-1611.253352498599
-636.4154867958163
-169.96195819559043
105.13246238026005
357.36375640830363
526.1847385457907
630.2911763456347
705.6770135497114
766.6765684368245
821.2702179981316
876.9741387631715
940.3011783761133
1018.508439127061
1121.296213735493
1261.335149028233
1470.0121579891913
1795.490620314053
2178.1768702644054
2693.0404768454014
3797.0876163476173
-4300.8893169386865
-803.9078914116043
322.80881161051576
559.4951414798863
728.6295360082668
815.4721893300584
849.4732248683385
874.2786570622349
898.8139353504664
924.4669269154666
954.2356878222233
991.0313415381581
1038.1687189170825
1100.085278687311
1183.2175454090018
1316.2090462420679
1558.1083759542282
1922.8430735197178
3086.894551135576
6778.509123072168
)
;

boundaryField
{
    movingWall
    {
        type            zeroGradient;
    }
    fixedWalls
    {
        type            zeroGradient;
    }
    frontAndBack
    {
        type            empty;
    }
}

// ************************************************************************* //
