/*--------------------------------*- C++ -*----------------------------------*\
| =========                 |                                                 |
| \      /  F ield         | OpenFOAM: The Open Source CFD Toolbox           |
|  \    /   O peration     | Version:  5.x                                   |
|   \  /    A nd           | Web:      www.OpenFOAM.org                      |
|    \/     M anipulation  |                                                 |
\*---------------------------------------------------------------------------*/
FoamFile
{
    version     2.0;
    format      ascii;
    class       volScalarField;
    location    "3.049999999999997";
    object      T;
}
// * * * * * * * * * * * * * * * * * * * * * * * * * * * * * * * * * * * * * //

dimensions      [0 0 0 1 0 0 0];

internalField   nonuniform List<scalar> 
400
(
299.7654136992822
299.6121244308961
299.71993441042804
299.8727554001367
299.99772774334696
300.11189616261896
300.2200846729931
300.32140819282347
300.4160526440295
300.50251653470673
300.57759610218943
300.6357851690728
300.6693195991403
300.6708376202867
300.6278552093756
300.5290386332002
300.36993405194636
300.15545560730925
299.87106547673585
299.8031426838915
301.1357505280126
302.5700107617893
303.55560597966377
304.2873336170467
304.7970853793244
305.15082455459515
305.3780304756516
305.5017767360123
305.54552388482136
305.52735776646716
305.4620623575214
305.35713712076875
305.21174541030393
305.0225714723186
304.79334735572985
304.5114819712531
304.14698763614575
303.6971309890094
302.9553782787171
301.12673538966413
300.7678370319222
301.5167752220083
302.6300290280053
303.51900720048224
304.1926331871511
304.74942398056913
305.19363610840384
305.53923513929493
305.804519297106
305.99887157165614
306.12683693353677
306.1794769633395
306.1328058887906
305.9641722568632
305.65713761017446
305.1853623797911
304.51169391959155
303.70613185803967
302.7152783908195
300.7651232837436
300.6550058883566
301.008291913874
302.3575782902682
303.4447338245621
304.2953391483556
305.0574706474547
305.7110192570189
306.26220586478064
306.7247091338646
307.09907833412876
307.3808297483337
307.5481680886334
307.55983073040574
307.3808511996617
306.9871925245337
306.3478123284584
305.424454199175
304.3476059548622
303.1276914068323
300.7489958981868
300.7692822880973
301.0304938364659
302.6763879209462
304.00368650775806
305.06103112256216
306.042188294339
306.90891460867505
307.6616355275941
308.3096852980446
308.8448775621306
309.2526735041688
309.50184195957735
309.5437008061064
309.3364275592567
308.85190165144746
308.0526482238929
306.8919113256095
305.55312952441477
304.0620909605559
300.9609245875456
300.8650894333749
301.0162131210233
302.9461004069475
304.5179619051356
305.79106273142577
307.0013859529703
308.09354965017263
309.06066247372877
309.90638031021723
310.613480325088
311.1589682231459
311.50374147602014
311.58924521485295
311.3668525692961
310.8034150326171
309.8514289316756
308.45032781051106
306.8314902050079
305.0316338827779
301.172206126533
300.9749290187776
301.042499594639
303.28313191906545
305.11630976741634
306.61799252325403
308.06878190440267
309.39632647343376
310.5857711105685
311.63429882449924
312.5153370480299
313.1973489735902
313.6358052696815
313.76610191660404
313.5348645727495
312.9036778436556
311.81167975313673
310.1787982995575
308.276101632338
306.1297721648266
301.41541162068626
301.1117884219611
301.1214702938938
303.70702999849254
305.8199343269133
307.5608184301262
309.2587093850217
310.823865258895
312.23371060613385
313.4792918640957
314.5251230411756
315.33181772464087
315.8535359740115
316.0256072205285
315.7919223304635
315.1079986851544
313.8954739157601
312.04897135487124
309.8777812095561
307.37641822632
301.6915930572394
301.26613203102414
301.2118166358793
304.1760143205495
306.5821983764595
308.56334227513463
310.5042603461124
312.29708225671084
313.91260691009717
315.3377921554188
316.5304943414702
317.446332183743
318.04258694272
318.25911225600805
318.0373248954553
317.32423946106735
316.01858455434706
313.9851070034111
311.5809211678703
308.7520325696529
301.98221008243803
301.4366256771133
301.28832340143293
304.67234352559046
307.3797922113497
309.58909660289476
311.7548994789017
313.75050209623856
315.54300479900104
317.1196831145369
318.43589154450245
319.4460581902003
320.1141398925916
320.38815492988283
320.2045994766258
319.49633355863585
318.13084968478677
315.9383433912228
313.3509281299814
310.2605029810911
302.2747723549282
301.6245419358658
301.32048616353535
305.18116103290026
308.1896140567997
310.59682377402356
312.95188743165943
315.10796931597645
317.03395188521466
318.7247967326915
320.1392325622763
321.2351884169893
321.9851513652858
322.34725339949387
322.24700959105326
321.5932085802301
320.20723882445947
317.8728457056381
315.1483237509341
311.90579233230056
302.550913042361
301.83490039821487
301.2653929004959
305.6855326007984
308.97813990472486
311.5293424980798
314.01977260661556
316.2767189319291
318.2790282760401
320.039501823746
321.5276943186805
322.71117479614037
323.57125326340224
324.07612489617225
324.13111807315624
323.6069159406428
322.2534913132575
319.77358597357437
316.92200218759035
313.6798542809316
302.7799557083649
302.06909465976867
301.0727522265438
306.19336217035
309.72585362490423
312.33657049837086
314.89017564645377
317.1709254379766
319.17854077556154
320.95609083363377
322.49202443352533
323.77169570589984
324.78613511366905
325.51208689134154
325.8244159360326
325.53894781550724
324.2975122269554
321.64589439901937
318.5990655575901
315.5449231091092
302.9417804277102
302.306484389113
300.71654611520995
306.7856851486055
310.4728295865702
313.013138040087
315.52838623131
317.73290790950875
319.66049628790853
321.3938275310549
322.944631408732
324.32675058216944
325.54794760277895
326.59186050615364
327.29581491172877
327.4055973745045
326.4151998309737
323.57478344401017
320.114496229055
317.33169254353237
303.0277315806953
302.6322561733701
300.34128371761335
307.49903859324405
311.1109636677452
313.4337197103352
315.81944974122183
317.8610183488279
319.64658918010144
321.2968151917566
322.837382039918
324.3249742945794
325.8050591847445
327.2681354636257
328.5234393281768
329.2517081823502
328.79321110169127
325.8847196741127
321.58036605518015
318.63992705563163
302.9990092239384
303.0018576175146
300.4583794594647
308.54585608918273
311.5769269569219
313.594534085944
315.849199177519
317.6932802791471
319.3224198229094
320.8971137448006
322.40829177900315
323.96665306190556
325.6791435765741
327.561293462965
329.4328828840569
330.955474187625
331.4025988260132
328.81868653254224
323.24099658475996
319.1007655107972
303.62542022765376
301.7628158801028
302.25598264225863
311.86848876038533
313.7555673963411
315.0814570653618
316.87333569351847
318.27714750707605
319.61284540846947
321.0088982210452
322.4639770146187
324.04493960224863
325.8494631030785
327.9032307511549
330.14143911112876
332.33957404663994
333.8241176486787
332.24681907721913
325.46041158234937
317.8463629268328
306.83879406526773
302.5036402292088
310.02604278262703
316.2966364689421
316.03426892380077
316.53096911999955
317.51565641030464
318.6365536411756
320.020510905533
321.5800819372608
323.25623751831336
325.07908118398024
327.1179164172969
329.4399157520173
332.1366862521097
335.0649950891837
337.61972855711804
338.8353740077195
332.1790129633537
312.413061590988
308.4649658107253
319.92913182290977
331.8274455802483
312.8211746478717
309.0110464645269
312.15508556230037
315.36394935041267
318.3315395739886
321.2259646289157
323.89129169372114
326.34042829839257
328.69761267307786
331.1082486026383
333.7655375322398
336.9972615602089
340.92539482576495
345.4191370012012
351.90645300682843
349.05340308583055
307.4356654394719
308.0475892188053
287.5384393895326
351.2530891503689
343.9951189030116
340.3942552707774
341.6508106118776
342.22298927885026
342.3974904132451
342.6687312559019
342.9873952490541
343.31693482678054
343.6551162704364
343.95426180666715
344.20207648653883
344.42322063245416
344.4558264520655
344.09569360534755
345.4477759692992
343.0457469145112
314.297689123778
365.57989420137443
)
;

boundaryField
{
    movingWall
    {
        type            fixedValue;
        value           uniform 350.0;
    }
    fixedWalls
    {
        type            fixedValue;
        value           uniform 300.0;
    }
    frontAndBack
    {
        type            empty;
    }
}

// ************************************************************************* //
