/*--------------------------------*- C++ -*----------------------------------*\
| =========                 |                                                 |
| \      /  F ield         | OpenFOAM: The Open Source CFD Toolbox           |
|  \    /   O peration     | Version:  5.x                                   |
|   \  /    A nd           | Web:      www.OpenFOAM.org                      |
|    \/     M anipulation  |                                                 |
\*---------------------------------------------------------------------------*/
FoamFile
{
    version     2.0;
    format      ascii;
    class       volVectorField;
    location    "3.049999999999997";
    object      U;
}
// * * * * * * * * * * * * * * * * * * * * * * * * * * * * * * * * * * * * * //

dimensions      [0 1 -1 0 0 0 0];

internalField   nonuniform List<vector> 
400
(
(0.00027860097844719165 0.0028023118849898427 1.0595490950496545e-19)
(0.00045161421813217457 0.0051495032325274805 2.35683809380489e-19)
(-0.0008099464502441167 0.006309569671750835 1.7186844336476888e-19)
(-0.003200085497046918 0.006923990321449193 2.356352788413995e-19)
(-0.006144621343135846 0.007189063618117498 -1.3228962703946154e-19)
(-0.009246707917274163 0.007201074955633242 -8.448340244421745e-19)
(-0.012169654388472536 0.007018747739176939 -1.0695789875081776e-18)
(-0.01462799238479415 0.0066892223316202416 -1.111998752417381e-18)
(-0.016405280311537148 0.006253367212307652 -1.527688974008844e-18)
(-0.017350698774421202 0.005749061104309469 -2.1204145226789924e-18)
(-0.01737946648783436 0.005215184364688608 -2.3330863832301683e-18)
(-0.01647795033438491 0.004694033797528755 -3.2052306106934362e-18)
(-0.014710103515270181 0.004233235399417939 -4.354709864502255e-18)
(-0.01222301837826723 0.003885623827715106 -5.27279209452911e-18)
(-0.009252892524188691 0.003710129532336424 -6.154923448859206e-18)
(-0.006127729679378824 0.0037611128155025644 -5.5007667030970605e-18)
(-0.0032422724611655155 0.004054848358887861 -5.2499864060793995e-18)
(-0.001029648954617313 0.004521411508179001 -5.030284768060133e-18)
(0.00016341438462018313 0.004852834800248023 -3.1057421005435925e-18)
(0.0005430909246428468 0.0035943005784889164 -1.1913424791987312e-18)
(0.0003388287598816962 -0.0006612690929138422 4.516756346376112e-19)
(-0.001434155715818081 0.0012605800994868104 1.1736359405921835e-18)
(-0.00545466651146085 0.0032512236158994084 3.6304160901624234e-19)
(-0.011380492557407695 0.004578923816272347 -2.772164532666517e-20)
(-0.018422191042958055 0.005221643866416857 -1.189818439793728e-18)
(-0.025787382991756178 0.005203904546436596 -3.0495703241279814e-18)
(-0.03270939869939333 0.004606708762236197 -3.4333077948933986e-18)
(-0.038524766120926035 0.0035467121349920727 -3.0907544504634333e-18)
(-0.04272055628374622 0.002144309384106065 -4.639160167534656e-18)
(-0.04493775867100559 0.0005230054725416446 -6.853356067276792e-18)
(-0.044979716027666615 -0.0011872112144854729 -6.3646876826853056e-18)
(-0.04282385879681306 -0.00284780860423484 -9.354741340356008e-18)
(-0.03863187197370331 -0.004310287474455666 -1.3402092680129333e-17)
(-0.03275397087018705 -0.005418466447280823 -1.6187133051444458e-17)
(-0.025726277031151372 -0.0060172325786034915 -1.563765489826576e-17)
(-0.018265115252371577 -0.005966437373952257 -1.6232217474784337e-17)
(-0.011178913701293144 -0.005195866569566748 -1.5583344224647633e-17)
(-0.005226748257967429 -0.003734082960523437 -1.2236014093672727e-17)
(-0.001402024961528916 -0.0016897907199926378 -9.294803946263732e-18)
(-0.0004865668995619714 1.5310058606704014e-05 -4.030031971795463e-18)
(-0.0008962130670372169 0.00045901560641261295 1.451789193309176e-18)
(-0.0037186825450781147 0.004975435208783498 3.601098121748677e-18)
(-0.010400775457987173 0.009514762860672325 2.3407421084090733e-18)
(-0.019613024546301372 0.012598129518376244 2.599972112326155e-18)
(-0.030085994826346406 0.014067881793885208 4.189222413960878e-19)
(-0.04085279077183973 0.013929414609831818 -2.2997770890807506e-18)
(-0.05087793479283582 0.012345763074699105 -4.322917105532749e-18)
(-0.05925250503341262 0.00958451019609655 -5.699255874035987e-18)
(-0.06527550826472528 0.005945029888956419 -7.656667181559774e-18)
(-0.06845330895898456 0.001745234475165237 -1.0062118323848207e-17)
(-0.06851566147866262 -0.0026777774660463167 -1.1461686637193443e-17)
(-0.06543207560915071 -0.006966013783403105 -1.438899435287856e-17)
(-0.059424213602905646 -0.010742817126300753 -1.9415690803593298e-17)
(-0.05096767765777551 -0.013624704669185427 -2.2969213443531828e-17)
(-0.04078434129021806 -0.015245602988068496 -2.43790773873674e-17)
(-0.029838173445371607 -0.015300971307086431 -2.4516801931132878e-17)
(-0.019219312974171784 -0.013643308926038846 -2.2830817659479794e-17)
(-0.009904787441815898 -0.010360915040574344 -1.8773563674801394e-17)
(-0.003235182954257062 -0.005788131120051703 -1.3059546730264218e-17)
(-0.0006853803543432821 -0.001125056246932887 -4.998094193143012e-18)
(-0.001563865371088758 0.0032364841523863626 2.7457037568166796e-18)
(-0.00551228778228711 0.01199371708733046 4.636346722546504e-18)
(-0.014951044183447034 0.01975389669141615 2.9124964126507584e-18)
(-0.02741600954919718 0.024932429054839136 2.8113613833203194e-18)
(-0.041122138071815695 0.027263574825968823 1.016781828548947e-18)
(-0.054970983371749625 0.02677513125104031 -2.4192387098191754e-18)
(-0.06772282012969522 0.023753696267845004 -5.669033399794343e-18)
(-0.07829897000199142 0.018655345860566972 -7.673807400293498e-18)
(-0.08588066912481733 0.012003298514394974 -1.0392769307819514e-17)
(-0.08988946073699698 0.004360295509734724 -1.4666246038356012e-17)
(-0.09000537729015376 -0.003676055980522171 -1.50423009232138e-17)
(-0.08618565845268568 -0.011473232750222344 -1.71964004004613e-17)
(-0.07867891204573582 -0.01836867564748474 -2.694644614692699e-17)
(-0.06803068670948446 -0.023693715481407314 -3.2128950303861285e-17)
(-0.05508061194102053 -0.026816703752750717 -3.445255304774749e-17)
(-0.040976749397115896 -0.02722007598782191 -3.465408851214588e-17)
(-0.027050038823736886 -0.02463975059242088 -3.22422411721943e-17)
(-0.014508848407806803 -0.019179648641210228 -2.6733093639148698e-17)
(-0.005162865539283072 -0.011360130488076754 -1.8311055867506134e-17)
(-0.001281117556887357 -0.002903981463844749 -7.236292715397457e-18)
(-0.0020716134409343094 0.00654425959973912 4.688146747977523e-18)
(-0.007245708477855525 0.02044093771840235 8.855079829659606e-18)
(-0.0193710193425259 0.03191366528318421 4.1480127923296754e-18)
(-0.03498755927317443 0.03933211752264092 4.781204313250583e-18)
(-0.051798539367367946 0.042408189012201045 2.9322113938999445e-18)
(-0.06854522717671768 0.04127233735187457 -2.8987067641283482e-18)
(-0.083808763607046 0.03638832016859645 -7.829627967308196e-18)
(-0.09638613228694937 0.02843568237011045 -8.636142447227318e-18)
(-0.10538596608946746 0.018188490408507126 -1.1628018678931116e-17)
(-0.1101786785610916 0.006476132736721514 -1.65595421003049e-17)
(-0.1104089728753269 -0.005823355364220477 -1.720598424480072e-17)
(-0.10601294596517803 -0.017782596521604882 -2.1079840561890665e-17)
(-0.09723611285704548 -0.028430294479852788 -2.997425646643901e-17)
(-0.08464773576491721 -0.03677934321768207 -3.491936607276707e-17)
(-0.06915345173349298 -0.04188720745016078 -3.761602782557478e-17)
(-0.05204342344866504 -0.04296264171646549 -3.8329199418917706e-17)
(-0.03486401175227293 -0.039547465905813185 -3.584992616161407e-17)
(-0.01904737628849618 -0.03166334528969545 -2.9340748438784475e-17)
(-0.006974987177718161 -0.019867720294299895 -2.248520497049617e-17)
(-0.0018965715982510731 -0.006109268892537262 -9.404893859686668e-18)
(-0.0026097049861370596 0.010796989407996139 4.084093782865885e-18)
(-0.008974101617883184 0.03113740701482902 1.252986534527526e-17)
(-0.023749563077232787 0.04704208427102815 9.082017349912113e-18)
(-0.04248591691276943 0.056924505007150045 9.015303541543872e-18)
(-0.0623355955646044 0.060637899984010084 8.610211307743492e-18)
(-0.0818664542645319 0.05853281947271238 2.3961123408668613e-18)
(-0.09950296152333413 0.051331765580313805 -5.27014470405222e-18)
(-0.11395382095316148 0.03999136815879848 -7.18329241254004e-18)
(-0.12429282455618593 0.025566868071836498 -1.0711498229535241e-17)
(-0.12986812101967465 0.00916820875947151 -1.582379765240243e-17)
(-0.1302994861803034 -0.008040973206497888 -1.6162388555862405e-17)
(-0.12549092051734495 -0.0248325310329145 -1.935590778245875e-17)
(-0.11565263147429986 -0.039910121792555424 -2.793801517846631e-17)
(-0.10133042687006269 -0.05193548553001147 -2.997479598368517e-17)
(-0.08344558780695924 -0.059598398857623476 -3.424259776191444e-17)
(-0.06339296853218615 -0.06175046055199953 -3.603096818041264e-17)
(-0.04292260155516087 -0.057633266551876984 -3.4330273872259624e-17)
(-0.023711946023344047 -0.04707516405792846 -2.958252086778864e-17)
(-0.008779073892732183 -0.030578788786272394 -2.2487300831240346e-17)
(-0.0024326106591068203 -0.010222020782221883 -9.363864756519726e-18)
(-0.0031516863715478124 0.016002232122351648 2.9381594733890843e-18)
(-0.01072594127719842 0.04410128019483465 9.164638395172576e-18)
(-0.028197796699928095 0.06513171574619239 1.0194043376434228e-17)
(-0.05006311402480035 0.07766491216092933 1.3422746554421252e-17)
(-0.07289008287626164 0.08186058049339315 1.3132518510812067e-17)
(-0.09507987890735932 0.07842598861422921 9.986023418623447e-18)
(-0.1149306858524825 0.06844346239522314 9.018404293214962e-19)
(-0.13110751303892085 0.05320974884562263 -3.7673662828347054e-18)
(-0.14269462626726018 0.03408762809501824 -7.489029891022758e-18)
(-0.14905166991102384 0.012467912230768447 -1.0616061294345923e-17)
(-0.14978778118881522 -0.010214534641578869 -1.1791474159969374e-17)
(-0.14476397019466325 -0.03244670996307326 -1.1304417971093735e-17)
(-0.13411949129925577 -0.052610981369470865 -1.7634035571125318e-17)
(-0.11832119944157336 -0.06899603153596301 -1.9671799935194405e-17)
(-0.09824217760711447 -0.07986418863177396 -2.0217658226779575e-17)
(-0.07532928584672152 -0.0836065983255161 -2.1132360442070654e-17)
(-0.05151207780938253 -0.07902510849962503 -1.9468250727464415e-17)
(-0.028731799848080206 -0.065597684265727 -1.5376749634520138e-17)
(-0.010733256233143104 -0.04362461590371018 -1.1310804445538886e-17)
(-0.0030087576496297813 -0.015271736130697872 -4.440273625078432e-18)
(-0.0037357668332061956 0.02214985883767152 1.4666297477439887e-18)
(-0.012589305877547042 0.05929613683671413 3.847961111792632e-18)
(-0.03284665667513058 0.08609144856136723 8.686076375204097e-18)
(-0.057834897956437474 0.10137557710245672 1.1883647742834125e-17)
(-0.08350276524484875 0.10580843033010466 1.2023745146877952e-17)
(-0.10811398440540716 0.10062403194303536 9.118752111189319e-18)
(-0.12989377040153427 0.08738588262622875 3.729979033365451e-18)
(-0.14753045328250372 0.06779881813666036 -7.791638532515124e-19)
(-0.16018392448711039 0.043552291645150926 -4.326974245450076e-18)
(-0.16727417401122224 0.016299634957219384 -6.896418263909102e-18)
(-0.16842314591128285 -0.012292470157752304 -8.340796662649505e-18)
(-0.16344214739786608 -0.04047063579641122 -9.320880795936813e-18)
(-0.15235944097889015 -0.06632711440765256 -1.1293998521655836e-17)
(-0.13549203000003557 -0.08777430951475342 -1.1022040015708147e-17)
(-0.11357379243608917 -0.10259022629693941 -7.12928964065876e-18)
(-0.08801614520693775 -0.1085835195495804 -1.0413030383507358e-17)
(-0.06086712374407265 -0.10393508796899378 -8.706804036096038e-18)
(-0.034317755975761276 -0.08755624718754589 -2.4096882846917336e-18)
(-0.012952576677094615 -0.059326083820330666 -3.953905228642969e-18)
(-0.003683337466300247 -0.021412875097322658 -1.770735585953737e-18)
(-0.004405444563796073 0.02933397504682871 1.0503184900705014e-18)
(-0.014633598432184763 0.07686613647027897 1.0127943173004317e-18)
(-0.03779064598061393 0.10999231070121816 8.630581963078871e-18)
(-0.06583562875200911 0.12798243951737287 1.248616310404712e-17)
(-0.09405291531767893 0.13226410477564224 1.365546938787738e-17)
(-0.12063530052643444 0.1248175568459189 1.1337440675942056e-17)
(-0.14382711703659234 0.10783316508848569 6.190039056591861e-18)
(-0.16244210816817842 0.08349597837408013 1.667260887800389e-18)
(-0.17581015440812384 0.0538285253973297 -1.777538774608236e-18)
(-0.18348268702156134 0.020705607747724595 -4.0367633647349004e-18)
(-0.18513400445472675 -0.014045218792036419 -5.073354392199651e-18)
(-0.18052770353177422 -0.048510927659050164 -5.483074270946749e-18)
(-0.16953954489532502 -0.0805617618232322 -7.245732611217558e-18)
(-0.1522486338040598 -0.1077626534187086 -6.48521984462196e-18)
(-0.12912240120531734 -0.1273673149034977 -1.7471695749872573e-18)
(-0.10139672118390573 -0.13646760869355729 -5.331828088910107e-18)
(-0.0711162940788986 -0.13239324410556688 -3.537237034531058e-18)
(-0.040652146814604655 -0.11319062374555156 2.9313422527514514e-18)
(-0.015553800638504162 -0.0779935663437792 -6.729857792519152e-19)
(-0.004509169849115657 -0.02881290122926253 -6.711322284238219e-19)
(-0.005209195553222049 0.037681675600193684 2.4082276964727276e-18)
(-0.016936548767157007 0.09698348603199612 8.510751519037398e-18)
(-0.04311387005830614 0.13684520251843557 1.117653682352579e-17)
(-0.0740182086244623 0.15723941846217074 1.4736148269653274e-17)
(-0.10422807651341512 0.16075123445125672 1.9118322720878715e-17)
(-0.13199496477460246 0.1503940155893152 1.7233154929794215e-17)
(-0.1557288902332362 0.12915620207990255 8.562359147071981e-18)
(-0.17451730319735673 0.09977297570827512 3.431728851322514e-18)
(-0.18798986244975474 0.0645861682333778 -1.0897925006702188e-19)
(-0.1959264648010004 0.025620118196302284 -2.24626080075585e-18)
(-0.1981135059622041 -0.015245378661610904 -2.4809079677999362e-18)
(-0.19428406977482726 -0.05606337567296026 -2.947213855521296e-19)
(-0.184126438709532 -0.09460202190788383 -6.016942988583507e-18)
(-0.16738371271891253 -0.12816006604624255 -6.967086597443239e-18)
(-0.1440911176145728 -0.1534679640444434 -5.563018513668508e-18)
(-0.1150993592421021 -0.16677207844853528 -6.131876249385026e-18)
(-0.0822356238150894 -0.16427101884941772 -3.9474115043322454e-18)
(-0.04788055988132195 -0.14273059294438517 2.790633414722343e-19)
(-0.018664900004942243 -0.1000331648916619 -1.3122943830733922e-18)
(-0.005561970202656505 -0.03771504775757749 -1.0366795952414848e-18)
(-0.0062413375190266225 0.047374861994462156 2.193112443950695e-18)
(-0.019627410570794677 0.11985263891716423 4.148966653114295e-18)
(-0.04892183374223871 0.16654922062710287 1.1677205107640418e-17)
(-0.08224646358546414 0.18862512068636303 1.5039915262251363e-17)
(-0.11347010348507199 0.19040592636263062 1.7197707204274518e-17)
(-0.1411395508093133 0.1763077673404727 1.4619720760303905e-17)
(-0.16405240316947817 0.1503070010849732 8.269553040202295e-18)
(-0.18177045989323332 0.11574174966452051 4.043175585092065e-18)
(-0.19438786554902943 0.07522586597827469 4.903893302649441e-19)
(-0.2020323414822537 0.030822831509540988 -2.2065074635042265e-18)
(-0.2046812992712669 -0.015685389375536755 -2.9371158388982503e-18)
(-0.2020759330273649 -0.06249378748034549 -4.63582606075534e-18)
(-0.19370271445144363 -0.10745105961664808 -9.975979411716293e-18)
(-0.17887828488026733 -0.1477483522899931 -1.138413914368969e-17)
(-0.1570140230767705 -0.179670046482143 -9.452475771067563e-18)
(-0.12829109101181924 -0.1985335254074831 -1.0783247849127564e-17)
(-0.09397422797384503 -0.19909493190974123 -6.688462724013674e-18)
(-0.056106878429992915 -0.17628131793497478 3.451442114266385e-18)
(-0.022447844509913394 -0.12592598754365172 -3.74481945556772e-18)
(-0.006960332607012204 -0.048455624811003864 -3.2113947768510414e-18)
(-0.007698378587044388 0.05871502534897676 3.514742833804785e-18)
(-0.022945721929664067 0.1457374588360931 9.539133825342044e-18)
(-0.05536800291634969 0.19881547297415425 1.4404772616814675e-17)
(-0.0902446642648811 0.22119624013974754 1.4955791232223112e-17)
(-0.12085524366274944 0.2198153223427248 1.9647431753996844e-17)
(-0.14645480996936572 0.20093824173329125 1.5816645907677342e-17)
(-0.1665427594850616 0.16970875461059792 5.987021958184662e-18)
(-0.18140602759565916 0.13007436657006707 4.264737082063953e-18)
(-0.19178746436861258 0.08482047667755184 5.783424894108816e-19)
(-0.19828633571151003 0.03589501576586869 -4.3842882512528565e-18)
(-0.20115880296716215 -0.015206663061708236 -2.37058798327361e-18)
(-0.20021538029426017 -0.06704149380684855 -4.727505932361146e-18)
(-0.19476595051339268 -0.11778610495177112 -1.8170307467814926e-17)
(-0.1836525660129994 -0.1647788946174607 -2.098210887159573e-17)
(-0.16548441274153977 -0.20406141217744028 -1.441380884775065e-17)
(-0.1394367888576396 -0.23005326558466083 -2.073940987623903e-17)
(-0.10571276414631635 -0.2357826889695198 -1.2997122115677338e-17)
(-0.06537953067396193 -0.2136360413146914 -7.697536104733328e-18)
(-0.027157656571719268 -0.15617795364758832 -1.3632695674971278e-17)
(-0.008930246070182425 -0.06149716987193703 -1.1029746214457998e-17)
(-0.009985696171818305 0.07222248734359804 5.169274645688788e-18)
(-0.02732642279022311 0.17495328805904214 1.471822829946451e-17)
(-0.06263764100498924 0.23301034996418496 2.0486847114751702e-17)
(-0.09743423310194024 0.2533744212250455 2.7777478858296103e-17)
(-0.12483250136267046 0.24681665425394594 3.040927405748807e-17)
(-0.14547953770059 0.22193713731365303 2.3170858979113016e-17)
(-0.159980985258631 0.18515814911340991 1.3032064812545073e-17)
(-0.1696208651133458 0.14094437543186747 6.56237268635088e-18)
(-0.17595509458602587 0.09207191647736047 2.2563004198322584e-18)
(-0.18014464476506223 0.04017121691168018 5.290279458993384e-19)
(-0.18279423002762293 -0.013761700579899654 2.512645992419743e-18)
(-0.183859282549863 -0.06888580637526423 8.322941867346317e-18)
(-0.18255426164778765 -0.12399803984461943 -3.81208479284343e-18)
(-0.17729117051338944 -0.17693857593666376 -8.298435038626681e-18)
(-0.16579031846646455 -0.22388677165661539 -8.756432900525937e-18)
(-0.14590959211975485 -0.25862194181092096 -1.0455279293160047e-17)
(-0.11616126287279399 -0.2723040320168427 -8.887269987642825e-18)
(-0.07557674023163803 -0.2539942981812002 -6.8079133695323296e-18)
(-0.03320209713431203 -0.19125412439085804 -6.4858578697489734e-18)
(-0.011932296502652406 -0.07751950268739363 -3.734624017989369e-18)
(-0.013841460669693115 0.08892540339512982 6.751628141264129e-18)
(-0.03342512229408774 0.2078115832661307 1.9408418641259042e-17)
(-0.07071577862920085 0.2677396655117545 2.4587845000987582e-17)
(-0.10248107995462523 0.28249006160350476 3.188098682615523e-17)
(-0.12269690437935707 0.2681467302775968 3.416853506855145e-17)
(-0.1344123470862272 0.23601391050443762 3.0117066178139537e-17)
(-0.13979415502260717 0.19373029127280977 1.68978575895539e-17)
(-0.1413522611533439 0.1460053402068945 6.986141675638294e-18)
(-0.14152264794611416 0.09530913043841446 1.6063211913035686e-18)
(-0.14201876237589095 0.04271254898135823 1.8125826734540883e-18)
(-0.14379913852867476 -0.011490535750867925 4.6889884975336276e-18)
(-0.14702909600091912 -0.0672704494255132 1.450135451778143e-17)
(-0.15097170227465487 -0.12432286115598769 3.885441488003953e-18)
(-0.1538010239715987 -0.18140180214168677 -1.0142302615137362e-18)
(-0.15247099361069802 -0.2354013289164277 -3.3011424144926253e-18)
(-0.14338615209694058 -0.2800798080158004 -4.759530006712239e-18)
(-0.12274920596250151 -0.3049872177144791 -4.87047662665634e-18)
(-0.0860546612415516 -0.2953036129740811 -4.229650934056826e-18)
(-0.04114425029397287 -0.23147258841056081 -3.4063784242218257e-18)
(-0.016766440198027636 -0.09782448457173733 -1.5548230317144615e-18)
(-0.020347575768342042 0.11093697558214595 9.528233719507774e-18)
(-0.04214005990787505 0.24430949981624173 1.7471631842431994e-17)
(-0.07880512730241897 0.29986854396310486 2.5767658465781628e-17)
(-0.10225460441877877 0.3038432515115476 3.5399312100875955e-17)
(-0.10951914892194767 0.27886221398201916 3.848855113183451e-17)
(-0.10722602803521722 0.23872107258776387 3.1594940629079375e-17)
(-0.09943591518274293 0.19180781427715987 1.8064277843671143e-17)
(-0.08993953673321634 0.14253164153060924 2.7767825633721106e-18)
(-0.08189497905195066 0.09263554650203626 -5.580759034991245e-18)
(-0.0773652548236363 0.04238202553356465 3.731093205615155e-19)
(-0.07754156527045529 -0.008769851665068424 -5.57232099585573e-19)
(-0.08281104293833397 -0.06169937808834229 1.1036953541066593e-17)
(-0.0926697921894061 -0.11716450688665135 7.636363889885795e-18)
(-0.10542566942190748 -0.17518824512804795 3.531038728608296e-18)
(-0.11772890027575329 -0.23406346014977933 6.676877451245319e-19)
(-0.12483227601049028 -0.2885866080364498 -1.1443831936417835e-18)
(-0.1204616821006354 -0.3277414523328163 -1.971252130888489e-18)
(-0.09497404815161059 -0.3331066761893924 -2.0679566020492782e-18)
(-0.051787045142116274 -0.2762195635570064 -1.6686178788077764e-18)
(-0.024608511171481863 -0.12472872177746197 -6.966407924398279e-19)
(-0.030707114298518662 0.14070542125807536 5.547751365345513e-18)
(-0.054159883691031196 0.28270883876431063 1.5297445367546515e-17)
(-0.0837418969080838 0.3241106286492993 2.4197559513645283e-17)
(-0.08961887435699455 0.3112532723847061 3.406277914976756e-17)
(-0.07612443037044246 0.27330994621631977 3.596942301297506e-17)
(-0.054212428822177895 0.22560682052215603 3.535457807914558e-17)
(-0.029554350300509895 0.17624283796825743 2.0630449239172143e-17)
(-0.006812099403810799 0.12844243205849654 8.593478758475628e-18)
(0.010677783983630241 0.08273083579444991 2.7759718860571083e-18)
(0.020977184940080926 0.03837492210916668 4.148283931198463e-18)
(0.022957879518000348 -0.006000016607618874 9.093682523530392e-18)
(0.01609404639392078 -0.05208959476587119 2.282544788443805e-17)
(0.00048824652253269616 -0.10165455122806548 1.2675878914190088e-17)
(-0.022795364806015107 -0.15612116662519082 6.88654170022539e-18)
(-0.05095544152253779 -0.21576143637679127 3.33696943898433e-18)
(-0.07913374300814367 -0.2778410301595653 1.1395466559646151e-18)
(-0.0995585555773638 -0.3327859459860708 -8.911927780879919e-20)
(-0.09688472555536813 -0.3598661725212763 -6.120090446824737e-19)
(-0.06493317479996966 -0.3217626684583258 -6.34905366153001e-19)
(-0.036796881129528676 -0.16005046009446916 -2.760934645715364e-19)
(-0.04265630608816272 0.18128233449306605 2.423848069453876e-18)
(-0.06420185444061 0.3169861441897848 9.72929603291891e-18)
(-0.07371431549458154 0.33093326426682057 1.991109706695281e-17)
(-0.04900734540070018 0.29683801731075043 2.919948504975043e-17)
(-0.006562979680472721 0.24565353477851642 3.368957945540274e-17)
(0.03926970260889795 0.19290913841179305 3.466971686823593e-17)
(0.08231965748796705 0.14507805815853403 2.0473439929048195e-17)
(0.11818556986775135 0.10293606808814933 8.403504045315977e-18)
(0.14440501609000556 0.0653083601206383 3.8615875018574226e-18)
(0.15988589260542113 0.030464471472824526 4.5756381432472886e-18)
(0.16398816859909945 -0.0035867633729398485 9.74900168734042e-18)
(0.15622435491760767 -0.03901260598476307 2.3039505512885452e-17)
(0.1362152147072838 -0.07818216990561278 1.3883373550526832e-17)
(0.10394561300200594 -0.12362479217798 8.227477960658837e-18)
(0.060541611292839456 -0.17772667408328932 4.648010495355978e-18)
(0.00932413920925434 -0.241583311208575 2.3467518841493246e-18)
(-0.04233526963407765 -0.30975759319605484 9.538723131994888e-19)
(-0.0760969095425118 -0.362438224741206 2.1831837339233437e-19)
(-0.07220940536489935 -0.36031248371116714 -6.398124640949923e-20)
(-0.049224606795644166 -0.20833084199096005 -5.989053716915314e-20)
(-0.0354642253373208 0.24756754646504894 -3.2168820829694065e-18)
(-0.051716910330739406 0.3343078349694269 4.3678506590921294e-18)
(-0.01805332658791746 0.29383568432045 1.4128565174243064e-17)
(0.05102456247577759 0.23912812605616843 2.3600610443252523e-17)
(0.12535854799663362 0.18272630621059224 2.834381497862356e-17)
(0.19381797683329918 0.1338246925142609 3.089749223795097e-17)
(0.25153002114834894 0.09545955159314995 1.7263888268973945e-17)
(0.29589404106013484 0.06518148977129105 -2.59534447008349e-19)
(0.32677307958923435 0.04016381620170653 7.117388263583218e-19)
(0.34471553231641244 0.018191250526442878 2.187640591648262e-18)
(0.3499590605870081 -0.0026936100101251433 4.966069529292253e-18)
(0.34225912948149817 -0.024413590881269917 1.2510645940865424e-17)
(0.32082466507039853 -0.04912387501193014 1.1179752260675823e-17)
(0.2843294211953624 -0.07950374567713953 7.717974435102631e-18)
(0.2311539497926988 -0.11917460087800752 4.7330946530660675e-18)
(0.16146423914260694 -0.17285159378800077 2.64122691359217e-18)
(0.08018205253518489 -0.24140863404218466 1.3147279592628175e-18)
(-0.0018227211622639397 -0.3150264484880716 5.561558946950775e-19)
(-0.05228064457896427 -0.37496988900350947 1.830095590131625e-19)
(-0.036061391719984834 -0.2844362771171324 3.4804936679535604e-20)
(0.04416230714385076 0.2948786193792202 -1.786599272906104e-18)
(0.02177749667519985 0.3009332749068565 -4.649485342622692e-18)
(0.13829474586114499 0.20089401348727162 7.256484691886114e-18)
(0.26683453384131045 0.1384399339863395 1.6826251826439862e-17)
(0.36316972215536075 0.09351774716513399 2.432912481962108e-17)
(0.4383414361721035 0.06137510551627361 2.5515925098449105e-17)
(0.4956348001665497 0.0403037617254402 1.5025686415374626e-17)
(0.5361019786557288 0.025987373181761465 5.645504466888985e-18)
(0.562679516201923 0.01527060570889129 2.2404971593527132e-18)
(0.577661678901636 0.006403379349415361 2.316635736591593e-18)
(0.5820502068199443 -0.0017920747973559751 5.612472962438533e-18)
(0.5758932931123687 -0.010329793022695996 1.5858871682219137e-17)
(0.5583380472096708 -0.020378298827203774 1.0264512544387416e-17)
(0.5272889182742927 -0.03365688507582564 6.3927717517080186e-18)
(0.47865624163489934 -0.05319835849617425 3.776551157304744e-18)
(0.40867307131098385 -0.08459035553232344 2.1289256644913953e-18)
(0.31456691575551354 -0.13455804870685634 1.1149265601334517e-18)
(0.17746960249064825 -0.20863889935143087 5.221513869762981e-19)
(0.03379919816197967 -0.3174157151737675 2.059336365485187e-19)
(0.0570077007432291 -0.31698358933003856 5.1418482337981286e-20)
(0.3501915706803972 0.0547753158480127 -4.544018217398604e-19)
(0.3809637596345537 0.15580360968725676 -7.127768613824511e-19)
(0.5431678567114936 0.12751611681228434 2.8742794736713854e-18)
(0.6809684633558666 0.08628489976084588 1.0046074599074306e-17)
(0.7513987239471056 0.051953160011312984 1.614961017374719e-17)
(0.7926911527359655 0.030742234006462556 1.5670093043539547e-17)
(0.8198886398006658 0.019373770500176704 7.521774682846874e-18)
(0.8369793354450032 0.013143262877302666 3.255400672640853e-18)
(0.8472712281870386 0.00937339306135269 1.3560990816363179e-18)
(0.8526639429842231 0.006707518178595425 1.2366270217431354e-18)
(0.8537927005136147 0.004403396059893646 3.232635079531715e-18)
(0.8506935850856954 0.001988461767307102 1.1121596451570341e-17)
(0.8429374351728807 -0.0010461572557411052 5.795240197492421e-18)
(0.8292811924144813 -0.005650103919174332 2.8747901031413075e-18)
(0.8065919751344628 -0.013656469739307318 1.5291946925257445e-18)
(0.7705274224399894 -0.029100008145072305 8.393719518425234e-19)
(0.711754309197491 -0.05999959520882325 4.444063364982428e-19)
(0.5837997501446651 -0.10635353728368556 2.144625272025767e-19)
(0.3983057987996521 -0.14526259831173438 8.80991917790254e-20)
(0.39492787553252273 -0.06830873762715406 2.3199613090651305e-20)
)
;

boundaryField
{
    movingWall
    {
        type            fixedValue;
        value           uniform (1.0 0.0 0.0);
    }
    fixedWalls
    {
        type            noSlip;
    }
    frontAndBack
    {
        type            empty;
    }
}

// ************************************************************************* //
