/*--------------------------------*- C++ -*----------------------------------*\
| =========                 |                                                 |
| \      /  F ield         | OpenFOAM: The Open Source CFD Toolbox           |
|  \    /   O peration     | Version:  5.x                                   |
|   \  /    A nd           | Web:      www.OpenFOAM.org                      |
|    \/     M anipulation  |                                                 |
\*---------------------------------------------------------------------------*/
FoamFile
{
    version     2.0;
    format      ascii;
    class       volScalarField;
    location    "6.0499999999999865";
    object      p;
}
// * * * * * * * * * * * * * * * * * * * * * * * * * * * * * * * * * * * * * //

dimensions      [1 -1 -2 0 0 0 0];

internalField   nonuniform List<scalar> 
400
(
0.0
-9.648938886450575
-20.332900328778322
-27.547937023489954
-30.406002826999682
-28.378247730529775
-21.518052070330427
-10.436108910973097
3.940464599970694
20.457428832328674
37.79270997477913
54.532970984645345
69.25646222940762
80.65023025694865
87.65457106789172
89.66509627598688
86.88277824959415
80.44984244259096
73.03634429687283
70.55873514524943
71.92612580832898
68.89429237331257
64.3493534920361
61.13939265897069
60.256081974503644
62.41769644798374
67.75866539240438
75.9608762385945
86.45623052673493
98.46541369738803
111.06191331370682
123.24445623793638
134.01460551069937
142.48574424400303
147.9892912339632
150.12091886060853
149.028549784085
145.64993094724545
139.59538070336143
130.3979646076296
133.4136216755225
123.61296358757954
118.22221419010238
115.41453013386166
114.55802824587052
116.5542983889632
121.38959624890722
128.70213579712635
138.01650117333745
148.6733954482392
159.87847455809694
170.76361992753348
180.4458003394882
188.12773380528367
193.18801622289388
195.13921613175657
193.94820963984947
190.70032400170544
184.50307437823471
173.0439707964341
189.06872081977875
172.44953883649674
165.3298492060881
162.08574525864893
160.7518686732126
162.53356662574132
167.21660715012237
174.31318201909363
183.36094919469136
193.73415786891957
204.67932925691588
215.37064869817527
224.94615182014772
232.5994268462865
237.6681013846893
239.52065109387937
237.9566147882441
234.2534411012263
226.87275280372725
211.55814173081367
244.1513933068411
222.80175065658113
214.43208641235378
210.87637335233453
209.23178632664084
210.96892139700887
215.7125836916668
222.86778970832162
231.98212072093756
242.45481027022365
253.5630042572682
264.5040317915193
274.4125606415356
282.44926071743896
287.88079090840847
289.88376139677626
288.06425410579044
283.91502358997576
274.81364508724846
253.92663431587258
295.4442147334992
269.11554293387934
259.18392127737474
255.22421473163863
253.36870382205615
255.31489226363763
260.5347109190823
268.3105604907612
278.17244148309123
289.5160222058159
301.6168992046499
313.65686945010276
324.7210768619524
333.8865919713509
340.2933268722976
342.86370019014475
340.9739106235849
336.37191307432676
325.4517899899574
299.0775109385932
341.6784804098561
310.20055605563454
298.699670413474
294.46715395545885
292.6538440261649
295.19360583729747
301.3976221238736
310.40935211877724
321.7246190720085
334.7189974138238
348.64771906626805
362.6562943482551
375.7546241177435
386.90197620036315
395.0644361772491
398.8468887757358
397.34463177293173
392.54823250613316
379.7900822688128
347.64378961725237
382.15805251668036
345.40746298683
332.54346483112414
328.39810906865733
327.07300946115186
330.73964763498753
338.5267426922158
349.4265197575255
362.89979030464775
378.3053785034619
394.8839628860094
411.74688597446186
427.8231980622696
441.9363701530612
452.83941117649516
458.73781764003115
458.3600606346983
453.91658932898537
439.42461989855343
400.78249884487076
415.67391729938157
373.23670452928906
359.27686332605947
355.7675509766069
355.56149860032946
361.0595240306771
371.1660730043683
384.7019707192895
401.10139875141954
419.72573172157115
439.82701751821884
460.5077475904206
480.6311067959703
498.8859668875554
513.782618423526
523.0268615958422
524.8535971803365
521.6657814145293
505.76411765603956
459.6505811785372
440.73234421973257
391.9165812426769
377.3201600844319
375.3092282705754
377.1247413900077
385.3958691352257
398.7363205668921
415.76796059955467
435.92086080340414
458.59873146779347
483.11682258477447
508.6246626047349
533.9678093852439
557.732401433694
578.1818778481206
592.4120318679343
597.9955235915816
597.4920166698919
580.8349998934727
525.9161084164581
455.4872725249288
399.197346958324
384.8099607937444
385.6853733846586
390.84907768814605
403.18371694215205
420.91334831530264
442.43141368780715
467.21252837412754
494.7708879275246
524.5712869202724
555.9081123354107
587.7025651771824
618.5185037727678
646.4211537243634
667.7961958891477
679.3336063394487
683.7251766560041
667.542454809028
601.9928823548188
457.4387216892368
391.9216188134665
379.36080832466956
385.38640525579507
395.89034348358035
414.1075530074851
437.718525301466
464.8730520800745
495.1884371467405
528.3989800282104
564.2465505245503
602.3194879766912
641.7655562357053
681.2768278675652
718.8662018632064
750.166648088047
770.7214254829435
783.4419606681889
770.1195569836306
691.4488656270348
442.68213740368805
365.4470600236321
358.14562435695456
373.1401985235079
391.97445745652504
418.60600855545937
449.9799101729426
484.05031061196985
520.7638402788886
560.2407026659163
602.67354918222
648.1462123667208
696.2486732569965
746.0327123580155
795.7357270511161
840.3429934763948
874.0553951252407
900.4871777997892
894.8507912544628
799.965239266929
404.6487409543352
312.9342961924292
317.7396507218544
347.9625922343831
379.5760797518191
418.058430105594
459.4763183567692
501.8119225578858
545.6518504940321
591.7364708284352
640.9365865312797
694.0882405792012
751.5216555461774
812.9768247729223
877.3618151115213
939.4495238189851
991.9974708960414
1039.9622727129315
1050.392495774941
936.2794822047039
331.09564423922274
224.6082237562295
253.43147499956706
308.06037099708084
359.30010416449363
414.5926513976029
468.87232403753904
520.8488681215485
572.2996816801234
624.9196502913233
680.553327210442
741.0964200105195
807.9959269976717
882.1349130272424
963.8412186575164
1048.839868025014
1128.3984108403029
1208.7455209170946
1249.5516143794978
1117.2857935450932
188.0767891139799
85.56499428521192
165.745500115094
258.61796959864307
338.4438471899236
415.9894066189689
485.1923430981465
547.0427090292295
605.4180710975083
663.3592529332853
723.9478009079721
790.3524809914607
865.4149140817427
951.6045748855178
1051.4828162302708
1163.5430680235534
1279.0544203859615
1408.0656185087025
1513.1663933967052
1389.8888860208865
-92.64642718928806
-119.44820577629866
64.73478694059744
215.39986229836447
332.19131323132444
434.0336517027827
517.1544996444533
586.8162422693338
649.591969227324
710.1440831827917
772.9105611611666
842.332720615266
922.7908332315013
1018.792804854885
1135.410279574523
1275.6340002458917
1436.2647359088446
1633.1034845926058
1849.748859504684
1823.1453742666542
-561.8667040833611
-374.1681700747285
-77.86396045847292
142.82228729249826
319.63880569069767
455.29680474577805
554.5645978755599
632.3174175571102
698.43504757897
759.7261542944359
822.5281455843324
892.7816459603603
976.873100254406
1082.4032236068986
1218.01386499171
1396.971641249841
1634.1180925276992
1917.6416469112014
2231.9938400154465
2455.1674688354237
-1611.305958737828
-636.3080347906651
-169.6100565048039
105.66027254605838
357.94760753875687
526.6938771724376
630.6109064268313
705.7364584573378
766.4582130325315
820.7968973884175
876.3025582680921
939.5164452377252
1017.704798633617
1120.564245715652
1260.748143484686
1469.6139940269659
1795.2956135993384
2178.148111676113
2693.1361883175937
3797.4020002649127
-4300.811647623488
-803.685007429722
323.4034448170474
560.4242805803561
729.7325956301512
816.5531145029147
850.343198139195
874.7982741720939
898.9125813508899
924.1391396738694
953.5306977948759
990.0447583948646
1037.020893284671
1098.905957918602
1182.1276453479857
1315.3003190249476
1557.439844583289
1922.4422572123963
3086.772597959516
6778.61217229346
)
;

boundaryField
{
    movingWall
    {
        type            zeroGradient;
    }
    fixedWalls
    {
        type            zeroGradient;
    }
    frontAndBack
    {
        type            empty;
    }
}

// ************************************************************************* //
