/*--------------------------------*- C++ -*----------------------------------*\
| =========                 |                                                 |
| \      /  F ield         | OpenFOAM: The Open Source CFD Toolbox           |
|  \    /   O peration     | Version:  5.x                                   |
|   \  /    A nd           | Web:      www.OpenFOAM.org                      |
|    \/     M anipulation  |                                                 |
\*---------------------------------------------------------------------------*/
FoamFile
{
    version     2.0;
    format      ascii;
    class       volScalarField;
    location    "6.0499999999999865";
    object      T;
}
// * * * * * * * * * * * * * * * * * * * * * * * * * * * * * * * * * * * * * //

dimensions      [0 0 0 1 0 0 0];

internalField   nonuniform List<scalar> 
400
(
299.7988542432334
299.7086883151563
299.8737084726154
300.07624982932924
300.24043842216963
300.3830677059244
300.5095912636465
300.62025387945056
300.7168327124312
300.799496241549
300.8662455130628
300.9117819729417
300.92834654769433
300.9083269042375
300.8390393378217
300.70916884896127
300.51470803171316
300.26132565371597
299.9347703761945
299.8245217285812
301.23688078285977
302.8622716930488
304.02845903894865
304.9130797205597
305.54063656813184
305.9768959659144
306.2534317126768
306.3976488110116
306.4386500895438
306.40009628842284
306.30172443160257
306.1520690670208
305.94948671302956
305.6916519013595
305.38344519460827
305.01273810243407
304.5501960620121
303.99483233374224
303.1396385475648
301.1883493233472
300.9355779248393
301.99124391191253
303.3955222361895
304.52521036071363
305.38154199950446
306.0648769256397
306.58362993543386
306.95950904823286
307.21976017264103
307.3818181796016
307.456610399666
307.43761748882577
307.30063003800916
307.0239772417543
306.592460934193
305.9803518150549
305.1509359287266
304.1772980614236
303.0080606972348
300.86039140609114
300.885405476981
301.6560258801483
303.40106388044757
304.80868823709767
305.8966468793959
306.817892064016
307.5596855503031
308.1402335178007
308.5858189209613
308.90770123109723
309.10963859075605
309.1739345013202
309.06077099425875
308.7371996947253
308.1809570808225
307.36161748945096
306.2405126858102
304.9511135353947
303.50595203638903
300.87130865017883
301.0586934246118
301.84227601640197
303.9791361408486
305.695763660947
307.03257384626943
308.191833309606
309.14692488011974
309.9152872020816
310.52324422561037
310.9765715165473
311.27133654674174
311.3827062637639
311.265993961982
310.8827337305512
310.207044834987
309.2016191654764
307.8177877637555
306.24065533009144
304.4963348182925
301.1012088508632
301.20877462486646
301.9796374799678
304.4829940380696
306.49946220714827
308.07964605567247
309.4721733075296
310.63870552106073
311.5953465846909
312.367819469953
312.95680712543714
313.3529291959576
313.5262360377031
313.4242952916509
313.0025546945356
312.2299599258623
311.0583571392277
309.4236295177106
307.5568691912407
305.4925021081917
301.3213918398048
301.3676849970682
302.14431384102426
305.0278216446
307.34704839887036
309.16908092607554
310.79203585008986
312.1672632364609
313.30980988096724
314.2447976978748
314.9680577952546
315.4650950694834
315.7029725436686
315.62411049476685
315.1788849373008
314.33011479182767
313.0151770399812
311.14918624957073
309.001142668798
306.5922674082226
301.56582627884444
301.5485975023174
302.34849386676433
305.63331571037196
308.2602196400436
310.3214193286903
312.1693353557565
313.74599610767956
315.0664033249013
316.1558563315326
317.00600404411847
317.5976555170813
317.89777875828037
317.84775694656616
317.39371880820175
316.4908886621905
315.0581012516242
312.9847801157133
310.5771389064508
307.82298518523896
301.8377923827604
301.74221414480127
302.55097940837976
306.25851028052335
309.1943501970719
311.4847111690099
313.5449965673818
315.3083867019765
316.79139269555066
318.0213640907892
318.9874315801373
319.66745679145396
320.03101381748075
320.02108421067607
319.57884423061375
318.6492089019666
317.1276245265326
314.87426494463244
312.243403797539
309.1738163945008
302.1215198960499
301.94762367547577
302.7270646559411
306.8876536328174
310.1303506793202
312.630118250488
314.88097765595234
316.80716742205954
318.42926047287284
319.78012591042443
320.8490283752716
321.6130138313159
322.04616020828126
322.0953149058055
321.6939541413914
320.77152495104934
319.19237356497496
316.78361467820616
313.97629237544345
310.6556620566782
302.4067993740551
302.16707387532864
302.8474989002297
307.5090716347605
311.051018048225
313.7263472103037
316.1337575144664
318.1869862629746
319.9146996964794
321.36074386446836
322.5183743882867
323.36662906098866
323.88493808181414
324.02570874533404
323.7091897725995
322.8403080869652
321.2381036887617
318.68541586939784
315.7423992863969
312.27645260712256
302.67648878948376
302.406957448633
302.87097609336325
308.10954824802917
311.92921129516185
314.72669286231593
317.2433395856144
319.3750478871604
321.1643548654052
322.6737277928072
323.90561361248666
324.84551716467314
325.47845012193807
325.76327134735305
325.5990542571869
324.8531343953415
323.2746055580945
320.5677491556166
317.4928326912347
314.0297808375535
302.90030917456363
302.67020398710685
302.74822375583915
308.69998199267536
312.75087535270023
315.59018628838675
318.1544720696109
320.30166380780923
322.09592600078844
323.62795436511027
324.9154726299794
325.9575993302948
326.7465573763715
327.2481631266145
327.3316681858813
326.8110230878066
325.3291450841425
322.435576324143
319.15456100815595
315.8779677202297
303.05809217292705
302.93710169798936
302.4524166045301
309.36190160308394
313.55813209627263
316.3158635121117
318.839030683737
320.9165506257515
322.6439898583762
324.14709704337355
325.46232220579293
326.61260523995713
327.60479672798255
328.4130401028718
328.8716221737546
328.72633475760813
327.4745406432425
324.3719840835357
320.66154876326294
317.6509058905252
303.14094563475317
303.29238498932443
302.12358628664276
310.12495543555326
314.2344283519534
316.76981106952735
319.1725608388613
321.10642116496024
322.7160276364763
324.15812250792953
325.48012417176574
326.74263547948306
327.987113703271
329.1983839192143
330.18795179895557
330.6374266010964
329.89284402654033
326.6986343536029
322.1246195176414
318.9474505367161
303.10954668028654
303.68594363149884
302.26079734049694
311.1806040062128
314.6887287941865
316.91673944770463
319.20374284092884
320.9661373885153
322.45133198229416
323.8409282907692
325.15581971315163
326.5027756625558
327.9791174676745
329.59570584189896
331.187028162251
332.4106179622737
332.5477167424012
329.65406969558336
323.7864074523713
319.39741547525387
303.7330054248274
302.44214008716585
304.0213556180682
314.4351273086825
316.76318082881056
318.28880903815264
320.1170324380575
321.45820259223626
322.6763606295288
323.92058132914946
325.20337993812905
326.59138818203854
328.17439319817925
329.9792599988576
331.94376619149915
333.8427995660684
335.00583191615993
333.10095817416453
326.0098459037414
318.13206627668336
306.942255608743
303.1183495519723
311.6413436804158
318.6113632895894
318.72057421427957
319.3697277768522
320.3792748582386
321.45055619253833
322.74172883287156
324.180273113078
325.71512915057195
327.3784585270395
329.237825921434
331.35835625975216
333.8290484845741
336.50312591251225
338.77482607766393
339.6909748319413
332.7343888542576
312.68709080137455
308.56202435808837
320.4195900995916
333.1014483249906
314.48092636014405
310.88092663665566
314.1287407948648
317.35993833328854
320.30174442969127
323.14216246973024
325.73424806223085
328.0959911489232
330.3553678644571
332.66022097152376
335.19857827935806
338.2943574772342
342.06400539767816
346.3709338704079
352.64792846346177
349.56098175646883
307.68778335205417
308.1356839914345
287.7279298908839
351.80345854885616
344.702568502967
341.1745341568473
342.46030719343815
343.0290513878478
343.18275939121395
343.4243688804456
343.7077620929978
343.9978257354115
344.29338615133133
344.549111842399
344.75229348981486
344.92580263218593
344.9056093944523
344.4853301187386
345.77066282853986
343.2902695957885
314.4417795675054
365.65441211392647
)
;

boundaryField
{
    movingWall
    {
        type            fixedValue;
        value           uniform 350.0;
    }
    fixedWalls
    {
        type            fixedValue;
        value           uniform 300.0;
    }
    frontAndBack
    {
        type            empty;
    }
}

// ************************************************************************* //
