/*--------------------------------*- C++ -*----------------------------------*\
| =========                 |                                                 |
| \      /  F ield         | OpenFOAM: The Open Source CFD Toolbox           |
|  \    /   O peration     | Version:  5.x                                   |
|   \  /    A nd           | Web:      www.OpenFOAM.org                      |
|    \/     M anipulation  |                                                 |
\*---------------------------------------------------------------------------*/
FoamFile
{
    version     2.0;
    format      ascii;
    class       volVectorField;
    location    "6.0499999999999865";
    object      U;
}
// * * * * * * * * * * * * * * * * * * * * * * * * * * * * * * * * * * * * * //

dimensions      [0 1 -1 0 0 0 0];

internalField   nonuniform List<vector> 
400
(
(0.0002906697615793982 0.002790193994087856 1.7870161459430366e-20)
(0.0004617619077557308 0.005149877810076101 9.826578057781377e-20)
(-0.0008298443953778064 0.006328354814539082 -8.263921128711417e-20)
(-0.003278329762247276 0.00695653462964814 -2.524181771505384e-19)
(-0.006298654524118277 0.007229191182636778 -3.3583539373357574e-19)
(-0.009483011383908654 0.0072427691588859535 -8.992232792854662e-19)
(-0.012484793621088432 0.007056703626647693 -1.0652037432646474e-18)
(-0.015009728024203741 0.006719111485435204 -1.1315432417725746e-18)
(-0.016834170621949314 0.006272010495601917 -1.5953721678801075e-18)
(-0.01780250653020577 0.005754493757392711 -2.170378770734913e-18)
(-0.01782771106895973 0.005206601847314489 -2.3831382977891103e-18)
(-0.016896459490412196 0.0046722373173261585 -3.2831627431638474e-18)
(-0.015075370337717746 0.0042004278791033115 -4.460985920713629e-18)
(-0.01251704790586892 0.0038454547139407658 -5.460826087419488e-18)
(-0.009465918298304043 0.0036677241074877993 -6.286330793858075e-18)
(-0.006259675823774177 0.003722236299518403 -5.567091837417446e-18)
(-0.0033032895750145005 0.004025491902189522 -5.070726690628806e-18)
(-0.0010399443853497013 0.004506730597405672 -4.463312285004501e-18)
(0.00017597547356620994 0.00485502800127254 -2.9801604820797844e-18)
(0.000555022486655531 0.0036060847163558478 -1.1644096458317516e-18)
(0.00033834782975850666 -0.0006716223321889611 9.186655660510185e-21)
(-0.0014698005689442331 0.001295967781591178 8.138592652783424e-19)
(-0.005592776971579205 0.003340039198341332 -3.5938074111308834e-19)
(-0.011675065626597998 0.0047060305940139395 -1.0486479044283685e-18)
(-0.018905310865410967 0.005369510698325892 -1.8512310689406088e-18)
(-0.026470517720659715 0.005353970789627396 -3.2413318023271377e-18)
(-0.03358212461753217 0.004741658855806035 -3.37783011626947e-18)
(-0.03955635107406367 0.0036521172890098905 -3.061828296021553e-18)
(-0.043863770578635795 0.002209396633073794 -4.765592273322226e-18)
(-0.046134381794262935 0.0005409747916508349 -7.003834879446076e-18)
(-0.04616626776957739 -0.0012183305887622801 -6.583858585518162e-18)
(-0.043937852589123735 -0.002924983796324962 -9.71835163125562e-18)
(-0.03961808104309616 -0.004425352035669893 -1.3782273605680818e-17)
(-0.033570037532484255 -0.005559136052071536 -1.6761846849159558e-17)
(-0.02634828157733989 -0.006167526762546269 -1.5943260351544872e-17)
(-0.018690702464099786 -0.0061082383352184955 -1.6448938426292306e-17)
(-0.011427290461615999 -0.005311444798102057 -1.5231859015440143e-17)
(-0.0053359790713817575 -0.003808910499224551 -1.1967187960052782e-17)
(-0.001426199242059418 -0.0017146292008560935 -9.199050959416081e-18)
(-0.0004839813354208634 2.775356719791941e-05 -3.966958562382174e-18)
(-0.0009162787578626142 0.00047920584203955746 1.5170665681920604e-18)
(-0.003810622455086168 0.0051139456525145 3.4844299900701645e-18)
(-0.01066635354980559 0.009773982331345065 9.687728521731339e-19)
(-0.020118967297255562 0.012944889876966615 1.4404601780191385e-19)
(-0.030867688932362664 0.014460594893909164 -9.302066163202452e-19)
(-0.04192092967392489 0.014322955280068328 -2.6478014776887625e-18)
(-0.052214104027603125 0.012697281729414272 -4.096164211856415e-18)
(-0.060811187752322346 0.009857727609154137 -5.3838147619699095e-18)
(-0.0669894966812584 0.006112389693406689 -7.558363009258015e-18)
(-0.07024064502440215 0.0017898153241749464 -1.031237716492833e-17)
(-0.07028765709417792 -0.002760646424324602 -1.201164335385617e-17)
(-0.06710177456954791 -0.007168079382905799 -1.5463613990039988e-17)
(-0.0609145010197869 -0.011043306114236477 -2.0043405831898085e-17)
(-0.05221904914335586 -0.013992079671527461 -2.325044991801491e-17)
(-0.041761458623985837 -0.015640199100869053 -2.4400001652874552e-17)
(-0.030534068235605904 -0.01567865447031943 -2.4393200672468346e-17)
(-0.019655326147905675 -0.013961333031192283 -2.2622472368960053e-17)
(-0.010124950180906443 -0.010584961540862236 -1.876141579694588e-17)
(-0.0033073419131477446 -0.005897415546266986 -1.3081031244383325e-17)
(-0.0006986633313730054 -0.0011346520600348591 -4.7917449193545425e-18)
(-0.001599799315691572 0.0033182429497896435 4.2489292783776284e-18)
(-0.005648649506250955 0.012294718717778172 6.19334287951499e-18)
(-0.015318862462358649 0.020256495319055462 4.540619674166275e-19)
(-0.028088991758549512 0.025578241986654034 1.146059130889802e-18)
(-0.04213415578625447 0.027980348641190443 4.700089465519965e-20)
(-0.0563291729289364 0.027485493293139165 -2.747493201099431e-18)
(-0.06940094509516433 0.02438404166559062 -5.253341419232199e-18)
(-0.0802404136779659 0.019142686027517616 -7.05652872111235e-18)
(-0.0880047674659287 0.012299916093472139 -1.0108119959104386e-17)
(-0.09209911352370241 0.004437285077264822 -1.5263967247567322e-17)
(-0.09219599675073867 -0.0038263636193935245 -1.6071529039347454e-17)
(-0.08825483679421275 -0.011835796196947532 -2.0307072778917773e-17)
(-0.0805358078548686 -0.018907123386603587 -2.7954599545736223e-17)
(-0.06960426297291022 -0.024353234201180202 -3.210722319655237e-17)
(-0.05632670254395932 -0.02752893727944393 -3.4051182623794656e-17)
(-0.04188283323983862 -0.027909774843243928 -3.394060759713668e-17)
(-0.027635855408258674 -0.025234058143778364 -3.1899787393914885e-17)
(-0.014818996508745056 -0.019618637446061717 -2.723259114355209e-17)
(-0.00527340481643946 -0.011605706003369456 -1.9399012624740724e-17)
(-0.0013077025656600143 -0.002961836418821874 -6.7196079244609515e-18)
(-0.002117877061443878 0.006709479011096233 4.8640639651178905e-18)
(-0.007410795336292799 0.020945334985423735 7.84921403966523e-18)
(-0.019803952334358513 0.03270630647578584 2.528947680383615e-18)
(-0.03576393864976205 0.0403231558711097 3.597455570875572e-18)
(-0.05294843279735292 0.043491071948961894 2.2859472958386168e-18)
(-0.07007157041356267 0.04233548167895767 -3.501344782675989e-18)
(-0.08567985198674384 0.03732601128841767 -7.42951576851464e-18)
(-0.09853899885494001 0.029157345369636017 -7.795839688392606e-18)
(-0.10773334647801931 0.01862565258480802 -1.0918690006917714e-17)
(-0.11261694651480474 0.006587716384293639 -1.6534994835618737e-17)
(-0.11282690935493854 -0.006047551900026837 -1.7232040480827452e-17)
(-0.10830176917204361 -0.01832057526134545 -2.171176993685615e-17)
(-0.0992988691209342 -0.02922935051758823 -3.034260622791621e-17)
(-0.0864074482693011 -0.0377606852636534 -3.4264469258562156e-17)
(-0.07056019396210028 -0.042952888507698454 -3.6643252897462645e-17)
(-0.05307975939001656 -0.04400506400895657 -3.613930420176786e-17)
(-0.035546003767015104 -0.040461687671741305 -3.469102924603643e-17)
(-0.01941680905955185 -0.03236034852767696 -2.9922773329765433e-17)
(-0.007111043262577596 -0.02028628824661991 -2.150036369855444e-17)
(-0.0019319074540561695 -0.006234138265663259 -9.095170892117066e-18)
(-0.0026598405636529296 0.011056884699245203 3.368073275773198e-18)
(-0.00914896985745451 0.031866424122906925 9.127390611843914e-18)
(-0.02420222489142263 0.0481482022263564 7.316424933612974e-18)
(-0.04328912935069533 0.058282435540809474 8.183529188402224e-18)
(-0.06351514623760311 0.06210501415902971 8.863682395363846e-18)
(-0.08342214595734379 0.05996284778636104 2.8228164404785066e-18)
(-0.10140088994765274 0.05258705082059899 -4.468006301013475e-18)
(-0.1161303545207406 0.040954254968625294 -6.044584451306447e-18)
(-0.12666158790806192 0.026148591621882312 -9.415741336835647e-18)
(-0.132327305190859 0.009315842587298654 -1.4581131043680817e-17)
(-0.13274025928883498 -0.008340182299579195 -1.4925522334032986e-17)
(-0.12780649196306204 -0.025549669703509983 -1.846275117365252e-17)
(-0.11774728902276152 -0.040976688913156936 -2.789453829748353e-17)
(-0.10312706358089688 -0.053249274048622446 -2.8426776919930776e-17)
(-0.08489210640634953 -0.061032427964640784 -3.274459556846296e-17)
(-0.0644681673356838 -0.06316495331073385 -2.990082807779534e-17)
(-0.043638002973777644 -0.058890249741114856 -3.185430939500153e-17)
(-0.024104412494914847 -0.048054161971221344 -2.780588256728424e-17)
(-0.008925732621540746 -0.031191097271943895 -1.8981543474496324e-17)
(-0.0024717488036034145 -0.010424022381166891 -8.20351856714435e-18)
(-0.0031992764723903382 0.016357284005260774 2.803554235734633e-18)
(-0.010890653789633449 0.04505300278516068 8.859129990245948e-18)
(-0.028622006824746884 0.06654506980003497 9.359331666601516e-18)
(-0.05081216592821007 0.07937896579344836 1.2752511976106549e-17)
(-0.07398565987867288 0.0836978040354173 1.3298917837730212e-17)
(-0.09652051106977066 0.08020743914844104 1.1050662695521172e-17)
(-0.11668450605108353 0.07000202880291884 1.93316165263471e-18)
(-0.13311612725316438 0.054402742346451816 -2.4980025957361684e-18)
(-0.14487981694411525 0.03480784471125458 -5.912849765927945e-18)
(-0.15132178991122033 0.012651705581422746 -8.74537952018753e-18)
(-0.15204466344437223 -0.01058222576522914 -9.43608938021257e-18)
(-0.146911030285562 -0.033330972754245736 -8.332103513402458e-18)
(-0.1360694752816478 -0.05392952162041192 -1.583714687255603e-17)
(-0.12000246234538818 -0.07062569941935672 -1.772679751320748e-17)
(-0.09960437016654534 -0.08165157206401688 -1.806927795578326e-17)
(-0.07634926241013214 -0.08538210832503947 -1.8388860730912696e-17)
(-0.052196265280596565 -0.08061910019191448 -1.75849181446876e-17)
(-0.029110272687623347 -0.06685808142383519 -1.3702720498459216e-17)
(-0.01087583024439615 -0.04443312846935821 -9.861881063190536e-18)
(-0.003047166490371548 -0.015552869307370812 -3.9223377887602e-18)
(-0.003774856193332645 0.02258952969976029 1.6905341444327337e-18)
(-0.012725179076568529 0.06044464839023507 4.8594582429321585e-18)
(-0.033196505290351785 0.08777493436713885 8.237673170353659e-18)
(-0.05845222150793121 0.10340157666242453 1.1005105661285357e-17)
(-0.0844055981375936 0.10796903053249289 1.1534309378312851e-17)
(-0.10930150577432779 0.10271210493473855 9.177052424983638e-18)
(-0.13134030899075497 0.08920914636063453 4.2909008442947034e-18)
(-0.1491887927195643 0.06919355268994062 3.1965626347837497e-19)
(-0.1619908356748967 0.04439557238473385 -2.7487086769581795e-18)
(-0.1691556129498036 0.01651886340083133 -4.9071197351094475e-18)
(-0.1702996197706239 -0.012714509107659677 -5.928774243638482e-18)
(-0.16523494307707973 -0.04149467521963979 -6.568970244564038e-18)
(-0.15399652223693877 -0.0678600251193314 -8.783410658939802e-18)
(-0.13691270855470952 -0.08967608547553686 -8.222413570857156e-18)
(-0.1147334846171559 -0.10468590130537687 -3.6877921886205e-18)
(-0.08889163928851196 -0.11067813289978785 -8.082390102463416e-18)
(-0.06145945314489718 -0.10583087422780173 -7.11822918927184e-18)
(-0.034648122192335866 -0.08907207287085762 -6.700056762039886e-19)
(-0.013077957327660443 -0.06031475606731492 -3.241367326095274e-18)
(-0.0037173443860389435 -0.021767188013097055 -1.5918559974349512e-18)
(-0.00443096563450087 0.02983752078331632 9.521453662593726e-19)
(-0.014724490249116474 0.07816344540031997 9.195731357671012e-19)
(-0.03802644165426866 0.11188079162093328 7.604851396017748e-18)
(-0.06625405658010483 0.13024630726272687 1.112008734936563e-17)
(-0.0946687174236025 0.13467247991636458 1.2487738787129423e-17)
(-0.12145019445256998 0.1271419523244543 9.883145314058369e-18)
(-0.1448251027625159 0.10986199907859545 6.0015469937845535e-18)
(-0.1635921460798261 0.08504935004893932 2.4559772808772525e-18)
(-0.17706988138244723 0.05477165432763465 -3.1897809086875705e-19)
(-0.18480204965832264 0.020958804414928738 -2.074154366243601e-18)
(-0.18645887103448655 -0.014501197145495318 -2.6347836928730397e-18)
(-0.1818037777023472 -0.04963434597645487 -2.622753158579401e-18)
(-0.170715925009434 -0.08225251095678059 -4.1434394086971924e-18)
(-0.15328090313077794 -0.10986936971669282 -3.1281344861914182e-18)
(-0.12997558525746866 -0.12969974578372978 1.70153649309054e-18)
(-0.10204926842942078 -0.13881178300229183 -3.232322867805824e-18)
(-0.07156381758724556 -0.1345294147326403 -2.841595161705989e-18)
(-0.04090506319176273 -0.11491305320899989 2.712237735968217e-18)
(-0.015650994259206817 -0.07913001161867636 -1.06973867245981e-18)
(-0.004535861614614408 -0.02922770703950929 -8.218605135509488e-19)
(-0.00521737325281152 0.03822051153828861 2.2667283488479335e-18)
(-0.016970290839051036 0.09836430718319532 8.520297441773805e-18)
(-0.04320592658524496 0.1388513104750902 1.002540339284736e-17)
(-0.07418785533908588 0.15964321645207966 1.328209337609464e-17)
(-0.10448691869245505 0.16330865088667743 1.7712693712427585e-17)
(-0.13234833690751832 0.15286368979602252 1.1960772482272705e-17)
(-0.15617320724550124 0.13131457888014839 7.431348012159449e-18)
(-0.1750410550580183 0.10142978609559972 3.902249327807833e-18)
(-0.18857563315591938 0.06559900185152054 1.170112365758347e-18)
(-0.19655275509139594 0.025904548807272415 -3.8629328918748484e-19)
(-0.198756289254799 -0.015710394068770835 1.1123863680935207e-19)
(-0.19491839804330516 -0.0572357776083851 3.14231612279073e-18)
(-0.1847273951832013 -0.09637897050859402 -1.76308242599838e-18)
(-0.16792735312956128 -0.1303853940567632 -2.27288622608082e-18)
(-0.14455543723566996 -0.15594357607755008 -2.074733891236393e-19)
(-0.1154668134041323 -0.16927342778318857 -3.682715526025929e-18)
(-0.08249639897548036 -0.16656429647160628 -4.422544572894748e-18)
(-0.04803278909533991 -0.14459250633792098 -2.832857925875579e-18)
(-0.01872534488587942 -0.10127225079433522 -3.220683772642403e-18)
(-0.005579301719283808 -0.038172856242916234 -1.5684631238368426e-18)
(-0.006230216028275366 0.04791518893464215 1.9170083863553398e-18)
(-0.019597621244442028 0.12124055753699947 3.48262528574285e-18)
(-0.04885463635824465 0.1685713338044288 1.0751522598695663e-17)
(-0.08214133481361778 0.19105504059581246 1.405907600337316e-17)
(-0.11333548746965744 0.19299798014004987 1.6039420806849286e-17)
(-0.1409845475663042 0.17881726997610095 1.2655809823411511e-17)
(-0.16388678236239254 0.15250646652490246 7.670718407952802e-18)
(-0.18160391978676577 0.11743721984100941 4.504692002330448e-18)
(-0.1942297205610922 0.07627204133987539 1.5391578572828245e-18)
(-0.20189163690579984 0.031133396653325814 -6.848816022761156e-19)
(-0.2045665589508151 -0.016132949173451927 -1.216396002071338e-19)
(-0.20199408403391217 -0.06365895719519135 3.128394713257937e-20)
(-0.19365779028561195 -0.10923285738626128 -2.9086424246311284e-18)
(-0.17886992893366152 -0.14999233944474 -3.948793463224169e-18)
(-0.1570361324655978 -0.18217924549530382 3.341877591031971e-18)
(-0.12833230506765808 -0.20108250072778594 -7.399553570713147e-18)
(-0.09402016265225659 -0.2014453894937812 -9.694633999025433e-18)
(-0.056142893530375625 -0.17820164741482195 -7.853339938916944e-18)
(-0.022465703245430964 -0.1272129300488326 -8.38133062526514e-18)
(-0.006966817936645508 -0.04893531853960067 -4.283345446273866e-18)
(-0.007668120413661044 0.059221260299421964 3.398152334264018e-18)
(-0.022853065769110028 0.14705253166557303 9.222996039727981e-18)
(-0.055143623824084595 0.20074754347148532 1.450260534079906e-17)
(-0.08986821738486211 0.22353340252514162 1.5354989471795228e-17)
(-0.12033113259140829 0.22232210580003356 1.917940091891861e-17)
(-0.14579515486993713 0.2033765210199906 1.4741639635285458e-17)
(-0.1657698497060397 0.1718554324852101 5.742844901222942e-18)
(-0.1805497591149957 0.13173871880538116 4.813766163205924e-18)
(-0.19088304604245407 0.08585944295683136 1.343728781341792e-18)
(-0.1973728084548304 0.03622328980297161 -3.732888080780419e-18)
(-0.20027683463941043 -0.015612388222270561 4.960059268365918e-19)
(-0.1994038391396421 -0.068143579152821 1.7182258148153451e-18)
(-0.19405836840925847 -0.11948942159945478 -3.929624236673487e-18)
(-0.1830735836330558 -0.16693726620512128 -1.3400033864710829e-17)
(-0.1650459985294832 -0.20648774496287534 -8.377850285837955e-18)
(-0.1391358132432841 -0.23253163936832533 -1.9048822078113187e-17)
(-0.10553212281786037 -0.2380812839247162 -2.035296819584669e-17)
(-0.06529251800793337 -0.2155254355977981 -1.3041368837137164e-17)
(-0.027130208519277325 -0.15745183892144365 -1.884558879735648e-17)
(-0.008925167473737899 -0.06197533151777214 -1.2275427542427939e-17)
(-0.009939366721488216 0.07266129054486223 5.306678256866627e-18)
(-0.027179806179909064 0.1761212220589179 1.488383955174922e-17)
(-0.062277371674893216 0.23475332236009427 2.198624220691607e-17)
(-0.09682175947016507 0.2555070382265863 3.051598249480746e-17)
(-0.12396675468897347 0.24912430459834597 3.080891864652637e-17)
(-0.14437356998927955 0.22419758367629986 2.2133658488164508e-17)
(-0.15866662904113915 0.18716078759922333 1.3136835079245903e-17)
(-0.1681449991597921 0.14250841406005976 7.519471374423867e-18)
(-0.17437552075680132 0.09306137353309857 3.530502491946844e-18)
(-0.17852703120658572 0.04050483522631626 1.6924479034868723e-18)
(-0.1812079789589321 -0.01410686314870386 4.49919850505845e-18)
(-0.1823722154162601 -0.06987595797121676 1.200271746066088e-17)
(-0.181227621341496 -0.12554679987251194 1.7473387826742842e-18)
(-0.1761737443900544 -0.1789133826880775 -3.7124850120923314e-18)
(-0.16491273373301713 -0.22611820752180292 -5.113235113282492e-18)
(-0.14527889845032574 -0.2609134815782301 -8.554041233541825e-18)
(-0.11576042279921157 -0.2744418073472288 -9.610175386909993e-18)
(-0.07536923988425424 -0.2557621870184876 -8.338826036297738e-18)
(-0.03312990682981895 -0.1924528914626216 -8.419069235882239e-18)
(-0.011915963805954593 -0.07797179121367948 -4.273356639258107e-18)
(-0.013784740734337393 0.08927026087611407 7.580781249701876e-18)
(-0.03324147464477574 0.2087733439447349 2.1945564833341965e-17)
(-0.0702599334111426 0.2692132852074926 2.7629674223667733e-17)
(-0.10169877013983651 0.28432539510638466 3.766883991149183e-17)
(-0.12157939885275536 0.2701584916833478 3.564804338653529e-17)
(-0.13297043471183986 0.2380038625894634 3.150361026814303e-17)
(-0.13806472809195766 0.19550749669470283 1.8333640617940257e-17)
(-0.13939392339548967 0.1474050636133313 8.892367887827223e-18)
(-0.13941014262024945 0.09620734990862413 3.775324789579687e-18)
(-0.13983844988832886 0.04303503895769543 2.378454453849879e-18)
(-0.14164352714690123 -0.011764980874743454 2.4507113974590233e-18)
(-0.14498960644463313 -0.06811226740616 6.000713073603104e-18)
(-0.14913229562670638 -0.12565612784939148 3.6926899569483304e-18)
(-0.15223125367964546 -0.18311129121318648 8.527421046087905e-19)
(-0.1512186618161351 -0.23734113603571771 -1.199659970975157e-18)
(-0.14246939285197485 -0.2820810994576777 -3.215797810427798e-18)
(-0.12215433872852818 -0.3068647543502879 -4.285891433838495e-18)
(-0.08573958376810163 -0.2968657269430822 -4.3211845272939984e-18)
(-0.04103121553669936 -0.2325377959775054 -3.8434295572262305e-18)
(-0.01673946063082675 -0.09822769958899787 -1.6953365197337606e-18)
(-0.020288845212450644 0.11117358366894796 1.022569685254443e-17)
(-0.04194345228317291 0.24503059650554593 1.9411367827977017e-17)
(-0.07830986807385283 0.3010223033002727 2.839509993059268e-17)
(-0.10139376588174495 0.3053184371182595 3.913171427502089e-17)
(-0.10827361654371973 0.2805082833192229 4.24996273081215e-17)
(-0.10560054331183968 0.24036984393801386 3.373975112966509e-17)
(-0.09746692371711557 0.19329432621867412 2.062387791173683e-17)
(-0.08769057597570487 0.14371298770525112 6.073385994334364e-18)
(-0.07945080030192367 0.0934041886253826 -1.858181566984226e-19)
(-0.07482562939208963 0.0426737265888086 3.6502377299035763e-19)
(-0.07501456208353463 -0.008973336768023267 -5.855842616574993e-18)
(-0.08040408109764245 -0.06237238411675945 3.567731353126979e-18)
(-0.0904825166656014 -0.11824269098393618 4.88225367402979e-18)
(-0.10354231928093453 -0.17657592341207817 3.50998611313731e-18)
(-0.11621009036172579 -0.2356415815321747 1.628068631287038e-18)
(-0.12370620682579618 -0.2902195318449537 -1.2680331288319012e-19)
(-0.119720646141001 -0.32928048298135226 -1.3026265386206927e-18)
(-0.09457592791129714 -0.3343944622826451 -1.780934085531344e-18)
(-0.05164160125106706 -0.2771019340439524 -1.6312109438568528e-18)
(-0.024572905332106498 -0.1250630128697748 -6.926117889261059e-19)
(-0.03065670578086865 0.14083491408091933 5.8692582175179635e-18)
(-0.053978832374137836 0.28318579625949714 1.5659242848876788e-17)
(-0.08327236187271363 0.32493051873603135 2.6135536884527742e-17)
(-0.08878479649543468 0.3123423984828466 3.786043495514478e-17)
(-0.07489350508191438 0.2745545137691858 4.4378798863507316e-17)
(-0.05257965514352173 0.2268727732247363 4.0110316327402685e-17)
(-0.027549935664035113 0.1773960445845544 2.4877802074682292e-17)
(-0.004497689133029334 0.129366816162397 1.293872663948687e-17)
(0.013214474131824867 0.08333913429740515 6.15506669289823e-18)
(0.02363110254097858 0.03861554362181928 3.6221953916729015e-18)
(0.025613751066183296 -0.006140886992668503 2.190766211025474e-18)
(0.018636752564831906 -0.05259037833807404 5.4505131313144505e-18)
(0.0028111162549330254 -0.10246322714220574 6.399656556244568e-18)
(-0.020783016048990317 -0.157162283511151 5.2989095886503045e-18)
(-0.04931987459698106 -0.21694405188720317 3.47160290668277e-18)
(-0.07790871650996209 -0.27906404437682775 1.715855743647376e-18)
(-0.09874258156467673 -0.333941172404049 4.2377249345181715e-19)
(-0.09644080443478399 -0.36083669512548483 -2.9720212238834435e-19)
(-0.06476837600440108 -0.3224293075165182 -4.923876289838322e-19)
(-0.03675572078997756 -0.16030120256022617 -2.3464232212747216e-19)
(-0.042623756258865476 0.18132289643663102 2.696993056641858e-18)
(-0.06406399863164239 0.31724732743240314 1.0012150965631486e-17)
(-0.07333312290243935 0.33144372640542735 2.1009323005094162e-17)
(-0.04830089471306935 0.29755558042595043 3.143406344881733e-17)
(-0.005484895077485159 0.24649942559492385 3.8577197056685404e-17)
(0.04073550451124021 0.19378581758766875 4.0269493720641504e-17)
(0.08415364436436808 0.14588466934133296 2.650230356995898e-17)
(0.12033338025529734 0.1035865418574846 1.5678910947620687e-17)
(0.14678358138767078 0.06573891836396989 8.593481235913956e-18)
(0.16239230747501016 0.030638312825810685 4.615197820785366e-18)
(0.1665086625248396 -0.00367828737456468 2.5746128106413684e-18)
(0.1586453076770915 -0.039352009932483015 6.002727971057744e-18)
(0.1384321138495224 -0.07873032653561363 7.287510894919684e-18)
(0.10587108939099259 -0.1243270991117482 6.281094090045207e-18)
(0.06211237810287349 -0.1785190099083954 4.443074093269478e-18)
(0.010508229133673113 -0.24239603374226532 2.6645301501447034e-18)
(-0.04153904702552183 -0.31052247281921125 1.3153119214254001e-18)
(-0.07565823668279452 -0.3630799255770525 4.739219583180326e-19)
(-0.07204373994916051 -0.3607515400076831 7.305041793162976e-20)
(-0.049181312650580664 -0.20849177882543085 -1.747548924217206e-20)
(-0.03545541575091097 0.2475533462535876 -2.7512061347715957e-18)
(-0.051641335438964917 0.3344090060423736 3.646618318707495e-18)
(-0.017804978631321387 0.2940923882328868 1.4715480850333494e-17)
(0.05152679061318605 0.23952043226046663 2.6736235584433772e-17)
(0.1261717362322789 0.18320685631546826 3.738750923633097e-17)
(0.19496823107730943 0.13433100345702656 3.7826920821636063e-17)
(0.2530081360832258 0.09592802268736315 2.5139140752769398e-17)
(0.29765635089911596 0.06555917627336319 1.5153878074259892e-17)
(0.3287470980749488 0.04041273385111132 8.245776860439308e-18)
(0.3468095189228724 0.018290462045166326 3.066800700971658e-18)
(0.3520718750833313 -0.0027476293991263406 -4.7199337543769215e-18)
(0.34429028179780324 -0.024608484175600246 5.5105806618601246e-18)
(0.3226830371914896 -0.04943470653363813 7.69185607628728e-18)
(0.2859408979444593 -0.07989735660159923 6.4899066994285515e-18)
(0.2324667474086049 -0.11961314669101518 4.570959086827028e-18)
(0.1624528937021553 -0.17329555552007145 2.84531909753361e-18)
(0.08084898500541642 -0.2418206532692087 1.5648262940547778e-18)
(-0.0014522754936463849 -0.31536675628607935 7.414054812190096e-19)
(-0.0521418953039237 -0.3751953726717281 2.8658071303916566e-19)
(-0.03602439607509135 -0.28451108973622263 6.74531190671718e-20)
(0.04415006180636325 0.29484933821063264 -2.7323321227043443e-18)
(0.021787272619351646 0.30094432568017015 -8.841679153768307e-18)
(0.13839413866266526 0.20097638702276324 6.3513242934358404e-18)
(0.26709537670376254 0.13858428363665853 1.9182803546455707e-17)
(0.3636499646587431 0.09370342296880355 3.025863300915422e-17)
(0.4390694956648411 0.0615736808431949 3.104866797058531e-17)
(0.49660857333462627 0.04048692502440925 2.001447652977549e-17)
(0.5372902960944168 0.026132850550614962 1.1763780598416606e-17)
(0.5640272667705658 0.015363471894876139 6.5611404676854655e-18)
(0.5790990417976485 0.006436201326156386 3.735698472582938e-18)
(0.5835010063774049 -0.0018192980097611869 3.737608472970485e-18)
(0.5772832352050522 -0.010410798051893272 1.3936348321026936e-17)
(0.5596015812587742 -0.020502024120954022 9.01609534939163e-18)
(0.5283748568163993 -0.033809496262272434 5.786774379674372e-18)
(0.4795314352070729 -0.053364876942698265 3.705130432630277e-18)
(0.4093235894959985 -0.08475563524856143 2.2589469032109814e-18)
(0.3149989607404597 -0.13470884988748583 1.2698275364660855e-18)
(0.1777042595268316 -0.208761517932602 6.371776262985678e-19)
(0.03388053193079103 -0.31748794243880285 2.69921837408587e-19)
(0.05702376115895123 -0.3169959251194067 7.155858809923756e-20)
(0.3501737065036873 0.054755666096214274 -1.8025090457382112e-18)
(0.3809351767257264 0.1557901341156955 -8.885599304323368e-18)
(0.5431593719523035 0.12752555723046943 8.65202232913509e-19)
(0.681020496661851 0.08631767786187602 1.0634007839449175e-17)
(0.7515456802902051 0.05200260416584552 1.8401332959534836e-17)
(0.7929491196265414 0.030797445243383292 1.8852340967194427e-17)
(0.820256056490556 0.019424390156659685 9.576452315843293e-18)
(0.8374397153625815 0.013181767468036003 4.852660885426323e-18)
(0.8477972928005657 0.009395368278493726 2.605626419693538e-18)
(0.8532230261612319 0.006711444195491809 1.6405686539204114e-18)
(0.8543508891350032 0.0043901125838121165 1.9040387694710824e-18)
(0.8512192103633758 0.0019608229482009558 3.9777010540734356e-18)
(0.8434042525715393 -0.0010840213656769066 3.5542638154877195e-18)
(0.829670261774204 -0.005693186981079548 2.420106355572657e-18)
(0.806893172934013 -0.013700116172543639 1.4943584365771426e-18)
(0.770739243330045 -0.029139805090989672 8.882761518039625e-19)
(0.7118829487407276 -0.06003250918563733 4.995444093987413e-19)
(0.5838581503123371 -0.10637780945545143 2.5459694278301326e-19)
(0.39831504830976033 -0.1452727323362174 1.1020411105724245e-19)
(0.39492151775507683 -0.06830295612570636 3.0279476240749635e-20)
)
;

boundaryField
{
    movingWall
    {
        type            fixedValue;
        value           uniform (1.0 0.0 0.0);
    }
    fixedWalls
    {
        type            noSlip;
    }
    frontAndBack
    {
        type            empty;
    }
}

// ************************************************************************* //
