/*--------------------------------*- C++ -*----------------------------------*\
| =========                 |                                                 |
| \      /  F ield         | OpenFOAM: The Open Source CFD Toolbox           |
|  \    /   O peration     | Version:  5.x                                   |
|   \  /    A nd           | Web:      www.OpenFOAM.org                      |
|    \/     M anipulation  |                                                 |
\*---------------------------------------------------------------------------*/
FoamFile
{
    version     2.0;
    format      ascii;
    class       volScalarField;
    location    "4.049999999999994";
    object      p;
}
// * * * * * * * * * * * * * * * * * * * * * * * * * * * * * * * * * * * * * //

dimensions      [1 -1 -2 0 0 0 0];

internalField   nonuniform List<scalar> 
400
(
0.0
-9.607640532261776
-20.223287684788477
-27.378915688555423
-30.198236573326067
-28.15763830131104
-21.311455847667315
-10.26778801500239
4.0513203900596855
20.499112101363533
37.761435448887326
54.433831014497024
69.10257274492314
80.4626363083764
87.4593367689628
89.48962012618624
86.75123173191308
80.37875453436658
73.0281363704054
70.58257386343128
71.88468104169394
68.89453490116159
64.3886075823037
61.21060349074402
60.35161046500833
62.52433489902173
67.86236084878125
76.04835500233914
86.51679061686715
98.49174997889534
111.05148806041134
123.19973972304456
133.943043598079
142.39892907292827
147.9017177223954
150.0474394827422
148.98195083533713
145.6369901135887
139.619371573594
130.45373018939767
133.30218181921128
123.57344714422538
118.22104411960551
115.44125480841574
114.60848418112158
116.61716953867774
121.45413036607182
128.75870305755586
138.05688381811632
148.6918676751554
159.8727733342989
170.73509454059953
180.39980782231817
188.07324261371676
193.13641777669565
195.1029770964032
193.93896158064825
190.72246829597438
184.56311932378702
173.16137012684024
188.89546068987013
172.37780735616792
165.29932501433274
162.08232193653237
160.7736602725752
162.56947158414556
167.25750679124766
174.35145533809091
183.3898834334517
193.7486158903113
204.67674848975042
215.35201507363175
224.9158074616323
232.56483076479145
237.63916868382148
239.5090343324421
237.97463885141778
234.30416268988608
226.96616347641265
211.73532509618542
243.93876179194612
222.70802311922452
214.37881229684822
210.84770550364644
209.2282420729718
210.98078416525158
215.7329691805781
222.89119973121322
232.00333573784764
242.46943854853555
253.5683779908027
264.50024623336964
274.4024112659727
282.43860920094806
287.87766482247827
289.898847986204
288.10968096867026
283.99276338576664
274.9363412697362
254.15017103463333
295.2231653453979
269.01734583363674
259.12399836616936
255.18659164970387
253.3553892067022
255.3177137648137
260.5484274107477
268.3313819477075
278.1960196731792
289.53831528902134
301.63469779425793
313.66944975760134
324.73027502396275
333.89679625828137
340.31131752746353
342.8994891892735
341.03965519159567
336.4693833612814
325.59507774291495
299.32876787609234
341.4831154766566
310.1180339059239
298.6503049548157
294.4368262356917
292.6456782465792
295.20132946475314
301.41767163984326
310.43900283271256
321.7604477245633
334.7569937477996
348.68418123961106
362.6896388197741
375.7856225873849
386.9336354760897
395.10241442924325
398.900524826295
397.42557819062733
392.6586209221785
379.9440524447211
347.9020528975705
382.02119784203825
345.3598596954356
332.52054535808526
328.38952677157556
327.0825175063612
330.76359731199426
338.5634875891008
349.4746477193819
362.9564157580785
378.3667129607474
394.945821463803
411.80669898496507
427.88029284869685
441.99238979906914
452.89878431335535
458.8084826834765
458.4528184844026
454.03377715739805
439.5793950533937
401.02795895150336
415.62230112971395
373.23975231403955
359.2934980622322
355.792478130189
355.598880431872
361.1086838150099
371.22768529866016
384.77585165371914
401.1854749167935
419.81645422571086
439.9195385416866
460.5985082520591
480.71794786531376
498.96900686623076
513.8646539298586
523.1141054546075
524.9554053393962
521.7846252898482
505.911078160743
459.8664514982904
440.782773292317
391.97999538886097
377.38442446099054
375.3748588870714
377.19576098424164
385.4752353510959
398.827007526601
415.87124623911836
436.03559839044857
458.72163304543477
483.2427402311161
508.74871500810974
534.0860869766782
557.8435337674842
578.2868075034837
592.5151849472696
598.1038193925341
597.6083150153759
580.9671444831894
526.089543560153
455.64453507360673
399.3230702095506
384.9230262396564
385.7925547726217
390.95359137953545
403.29248717484364
421.0320331938432
442.5630394918738
467.35700978799025
494.9249008419496
524.7294722504948
556.0639572484906
587.8507151005481
618.6556668692709
646.5468675597122
667.9127496152271
679.4452343333382
683.8353940826918
667.6541388013926
602.1149184592974
457.6937898225813
392.10272189930816
379.51653056051066
385.528111650347
396.0209381243788
414.2380683769986
437.8577972927981
465.0259399090295
495.35610068585214
528.5783218428447
564.4316457049233
602.502006197449
641.9382301649777
681.4347695161968
719.007673320982
750.2919448457739
770.8324876995764
783.5424051076862
770.2071899475206
691.514207675317
443.01214884920546
365.66792568084986
358.32974443338617
373.3018449178624
392.11689080101326
418.744495279139
450.1266313652454
484.21273175390274
520.9441088797518
560.4356898299653
602.8759974806554
648.3462432447232
696.4366548363046
746.2024377669703
795.8844443037316
840.4696510493204
874.1604323678375
900.5743364923421
894.9123089986551
799.9728059702375
405.01815355353995
313.1718091994253
317.93097145646954
348.12291589699544
379.71022666828276
418.1860431906875
459.6136276870854
501.9688089612157
545.8313443435711
591.9347075541085
641.144952532552
694.2943912981551
751.713546720153
813.1466640263378
877.5064593789531
939.5672798125524
992.0884738765096
1040.0318804847686
1050.4274117996506
936.2330635470659
331.46021378306386
224.83445301132457
253.60385363633134
308.19401716398494
359.4030881565626
414.68948199419225
468.9828611868422
520.9850942101689
572.4650641942411
625.1092080829515
680.7561058919356
741.2975948796081
808.1808309489055
882.2940043403453
963.9707323858906
1048.9385577538142
1128.466900254315
1208.7930642942872
1249.5610284188253
1117.1939745829195
188.39143520549322
85.75182717430411
165.87316098920593
258.7008319139128
338.4953682922596
416.038377370109
485.2617884910876
547.1462006182072
605.5588064836782
663.5307513310141
724.1367369416711
790.5417097938816
865.5872922636146
951.7480483735503
1051.5930470077662
1163.6192546561515
1279.098124380956
1408.0903227520282
1513.15388245431
1389.7644053736678
-92.41921677287796
-119.32300147184499
64.79756027764672
215.41438110727137
332.17712200111845
434.0221904745607
517.1719109391195
586.8773854397484
649.6997841847503
710.2911944693695
773.0823730231753
842.50988267788
922.9537357891114
1018.9264216841152
1135.507332319099
1275.692173665048
1436.2870742773312
1633.1066849826368
1849.7198862218358
1823.0078498456664
-561.7458310466488
-374.114477957146
-77.87124031051034
142.76848991745481
319.56406850829603
455.23198178121027
554.536189241185
632.3405565082517
698.5123819341609
759.8503392896719
822.6842160720523
892.9499214493899
977.0326042745535
1082.535801682583
1218.1074330782142
1397.021196734967
1634.1259714150067
1917.623175888176
2231.9514343123356
2455.04345963063
-1611.2765571193906
-636.3160546250082
-169.6770799218649
105.548979281102
357.82003308258027
526.5805145909557
630.5388140350975
705.7223849151337
766.5066747603767
820.9027944702574
876.4526558272462
939.6914642369192
1017.8830010645423
1120.7249518652786
1260.8748168639493
1469.6966104277733
1795.3312135850217
2178.1451262334585
2693.1037931299593
3797.319529149982
-4300.811904914584
-803.7185107779375
323.2821846909739
560.2226284734919
729.487733615241
816.3107993297132
850.1477518928233
874.6822648249031
898.892833168857
924.2168430978505
953.6941636423072
990.2717276888258
1037.283309989413
1099.1736776997561
1182.3730884178867
1315.5024953321295
1557.5854811674085
1922.5253338283176
3086.790546308839
6778.578497984477
)
;

boundaryField
{
    movingWall
    {
        type            zeroGradient;
    }
    fixedWalls
    {
        type            zeroGradient;
    }
    frontAndBack
    {
        type            empty;
    }
}

// ************************************************************************* //
