/*--------------------------------*- C++ -*----------------------------------*\
| =========                 |                                                 |
| \      /  F ield         | OpenFOAM: The Open Source CFD Toolbox           |
|  \    /   O peration     | Version:  5.x                                   |
|   \  /    A nd           | Web:      www.OpenFOAM.org                      |
|    \/     M anipulation  |                                                 |
\*---------------------------------------------------------------------------*/
FoamFile
{
    version     2.0;
    format      ascii;
    class       volScalarField;
    location    "4.049999999999994";
    object      T;
}
// * * * * * * * * * * * * * * * * * * * * * * * * * * * * * * * * * * * * * //

dimensions      [0 0 0 1 0 0 0];

internalField   nonuniform List<scalar> 
400
(
299.78340368047054
299.66407740008566
299.8029929854221
299.9837199561371
300.1315068790061
300.2631168862062
300.3834718451837
300.49201447539565
300.5896118888095
300.67557682462603
300.7472927470809
300.79928599866986
300.8237819778898
300.81324242198986
300.7550879744248
300.6379909131399
300.45778457905783
300.2198469830376
299.9097536659001
299.8161281826777
301.1904029922496
302.7279939583513
303.8139567288718
304.6327460486955
305.2117169415848
305.61631283821293
305.87634137031506
306.0165089554727
306.0629386311514
306.0366002455307
305.9549571005853
305.8260523941467
305.6485802858789
305.42003336793766
305.1449648556088
304.81107353892065
304.3887630630604
303.8764335933462
303.0669412001252
301.16404607955724
300.8588485244406
301.77260030807884
303.0474021257753
304.0730048383006
304.85395477986407
305.48917820002936
305.98377204439635
306.3547311563026
306.6245021871675
306.8064895319019
306.9086263250433
306.92324235134635
306.82626409487034
306.5958257889537
306.2164305301796
305.6621752370586
304.8961511031679
303.9904492116296
302.8928896440026
300.82252474043
300.7801378018649
301.35749947390866
302.92697140848543
304.1963455788805
305.18690122565846
306.0484898245461
306.7630047578918
307.34161473745314
307.8038798614516
308.1557214889226
308.3971011381698
308.50858020641823
308.44994694512343
308.1877753111635
307.69940478967396
306.95430790395346
305.91394105062034
304.7108695483181
303.3569015149513
300.82246152360483
300.9266667751692
301.4687904546535
303.38839136651353
304.937566405105
306.16036956173735
307.25390977171793
308.1836792695722
308.95745528903245
309.59274540589536
310.08856426833245
310.4362882935146
310.60866721803075
310.5599035047326
310.25073122728577
309.654832941063
308.7350090758407
307.4432208276627
305.9641422356438
304.3237931490021
301.0446429559545
301.0521722037707
301.53738999561955
303.7872361593812
305.6128194425541
307.0682874970526
308.39466472380735
309.5427485087996
310.51607867076297
311.3293127242023
311.97483805137654
312.4376041952866
312.6845051030233
312.66156373762976
312.3233601271397
311.6385311027816
310.5593248194095
309.0227507692875
307.2600787422329
305.30651642639674
301.26026717543357
301.1887879927762
301.63959582581583
304.23872527428955
306.3492292482102
308.0413386557985
309.60270002228515
310.9703771015649
312.1437158975722
313.1344047819386
313.9284119296251
314.50458930757196
314.826362853793
314.8346752193081
314.47931183635313
313.7230815355652
312.5040329741906
310.7387006607828
308.69674102011686
306.4010238117141
301.50271350368075
301.3495135538222
301.787263974182
304.761927000091
307.1674280152298
309.0982473354661
310.8929708488615
312.4755041631684
313.8418854576586
315.00166634284255
315.9351986971865
316.61590422084674
317.0071175265656
317.0494709370446
316.6891079124893
315.8816176702342
314.5466059472401
312.574822688387
310.2732839959433
307.63205948676625
301.77445616848763
301.5248109834014
301.93871371422813
305.314903508376
308.02110816423544
310.1842598261489
312.20200472621065
313.98529095599787
315.5284884283749
316.84117289187606
317.90016562643916
318.6757094898476
319.1343224642719
319.21956082308225
318.87340624518504
318.0413992560092
316.6195354092962
314.4687724998447
311.94385668549035
308.98610384733666
302.05888088048135
301.7134438872701
302.06858862175386
305.88052600637
308.888808402103
311.26671818885694
313.48604771312307
315.44469996036827
317.13831909325245
318.58056238263384
319.74805223208404
320.6106180179599
321.1403386072624
321.286284161703
320.983437002408
320.16183332070574
318.6857600121318
316.3821575132394
313.681681566832
310.4720734115463
302.3451333103566
301.9171861203584
302.1468283270456
306.44549388348673
309.75060766528605
312.31006140947335
314.6954256268423
316.7903794349087
318.59662756483556
320.1382266009775
321.3962562494523
322.3435856284982
322.9588931089827
323.19837957420106
322.9841896390798
322.22138137645953
320.7279665009444
318.28529779477725
315.45179565075654
312.0969064138664
302.6157611016061
302.141841703496
302.1312929233773
306.9950020115599
310.57680570118094
313.2636004735759
315.76453230432514
317.9425791525613
319.8123450686854
321.4168989108005
322.74776351627213
323.78583473915677
324.5165247330869
324.9035866089658
324.8478964603949
324.2160559455166
322.75485643227324
320.16555892416585
317.2049189507125
313.85395058280557
302.8404480342034
302.3897259437676
301.97223286754485
307.53890029419273
311.351591645441
314.0835165806641
316.6341486860495
318.8269897737803
320.6985064068034
322.3213072070381
323.704030012413
324.8430575105627
325.7319263370771
326.34163304423885
326.5426269828209
326.14696078336107
324.7937912555605
322.0280095787496
318.8682023404557
315.7057076153065
302.99909798642074
302.64076717571635
301.6432949670082
308.159040361678
312.11722845342774
314.76857396223596
317.2756382952777
319.39310924502564
321.19024729738896
322.7766498247064
324.18166626426034
325.427523351562
326.5233134161297
327.4475778991307
328.0347888166175
328.0276162896303
326.9182335359421
323.9560763193135
320.3758764946585
317.4824077891465
303.0829443069406
302.98003029772434
301.28686798394665
308.88912410657775
312.76250515442837
315.1908486776373
317.57150995886894
319.5360567524135
321.20498460170296
322.72118809817994
324.1261977962501
325.48187789123347
326.8334770475611
328.168716143605
329.29795879847404
329.89889204694947
329.31138062668265
326.2718162738659
321.83889240277443
318.783242735518
303.0528216760246
303.36022857936575
301.40839715469724
309.9314674652401
313.21075021092895
315.3314719824847
317.5894860437258
319.37253473306146
320.9058352216515
322.36098979312465
323.75077554352
325.1853404849338
326.7679985398536
328.5121969999466
330.24917167914435
331.63311480816964
331.93975337842943
329.21492200201544
323.5000267416774
319.23830319660107
303.67793607282584
302.1169391246105
303.18066141724034
313.21047346465497
315.32550606466947
316.7493300499424
318.5480365504401
319.90442603628026
321.162553235599
322.4625199720137
323.8127783177339
325.2814592677064
326.96318242497
328.88551439582307
330.98664790290303
333.04137233948364
334.37734643817424
332.65133206409473
325.72238680524265
317.9790217485398
306.88925807146114
302.8228787695598
310.8677741354592
317.5016876741353
317.43048830813257
318.0011511430734
318.9902713388577
320.0751115699817
321.3995987132956
322.8848066912493
324.476890703665
326.20782716244906
328.14655774801315
330.3602544107519
332.9403526256045
335.7427431059932
338.162512774777
339.23936499251096
332.4452690166994
312.5419637770814
308.51217824164667
320.183659243598
332.48893232389565
313.6825185038994
309.9793041140631
313.17285235876284
316.3877856835863
319.3358901000997
322.19606187808836
324.8174565370533
327.2159106089593
329.5177525515565
331.8697224740408
334.4626040178602
337.6226368133455
341.46971001393416
345.8709168522008
352.25695432770664
349.2945597084823
307.55624357966536
308.09000418373984
287.63635147181384
351.5379970610601
344.36130310948414
340.79760935172914
342.0682381109428
342.63731009587667
342.79947216575414
343.0535783223337
343.3520276808408
343.6590936472307
343.97318262624094
344.2477972240458
344.4706842162804
344.66579806533076
344.6704130570116
344.27952159830016
345.59853704142205
343.1591349222777
314.36438048856195
365.6143206753113
)
;

boundaryField
{
    movingWall
    {
        type            fixedValue;
        value           uniform 350.0;
    }
    fixedWalls
    {
        type            fixedValue;
        value           uniform 300.0;
    }
    frontAndBack
    {
        type            empty;
    }
}

// ************************************************************************* //
