/*--------------------------------*- C++ -*----------------------------------*\
| =========                 |                                                 |
| \      /  F ield         | OpenFOAM: The Open Source CFD Toolbox           |
|  \    /   O peration     | Version:  5.x                                   |
|   \  /    A nd           | Web:      www.OpenFOAM.org                      |
|    \/     M anipulation  |                                                 |
\*---------------------------------------------------------------------------*/
FoamFile
{
    version     2.0;
    format      ascii;
    class       volVectorField;
    location    "4.049999999999994";
    object      U;
}
// * * * * * * * * * * * * * * * * * * * * * * * * * * * * * * * * * * * * * //

dimensions      [0 1 -1 0 0 0 0];

internalField   nonuniform List<vector> 
400
(
(0.0002876390593203623 0.002793249613838921 1.2395776335517109e-20)
(0.0004592954651050789 0.005149572045605592 1.9075041671041397e-19)
(-0.000824365853398982 0.006323248524344538 1.1402195571643766e-19)
(-0.0032576632100616743 0.006947923748409738 1.2564933929864816e-19)
(-0.006258472868523583 0.00721866556697401 -2.324124303159182e-19)
(-0.009421809358625364 0.007231909001919254 -9.864764636625447e-19)
(-0.012403594544708706 0.0070468506680518616 -1.2261519791705673e-18)
(-0.014911764158838601 0.0067113796723600756 -1.195948445683248e-18)
(-0.01672445555206173 0.006267157251361698 -1.582264891972989e-18)
(-0.0176872305385224 0.005753044924493562 -2.1700294490160224e-18)
(-0.01771357091925209 0.00520869271831883 -2.5173569968283628e-18)
(-0.016790051514377038 0.0046776709569576365 -3.37948414185509e-18)
(-0.014982562516429895 0.00420865443848084 -4.456566760276208e-18)
(-0.012442309119897063 0.00385551791516657 -5.23801272863313e-18)
(-0.009411663259786875 0.0036783737558192006 -6.179625702512665e-18)
(-0.0062258889055838915 0.003732015615062672 -5.488706570680251e-18)
(-0.0032874366570427153 0.004032898634801421 -4.896240698208878e-18)
(-0.0010369897021080825 0.004510481228080991 -4.733396878367816e-18)
(0.00017301281466195706 0.004854552284169997 -2.9525637145145324e-18)
(0.0005520946400606049 0.0036031581338476578 -1.1411994786608343e-18)
(0.00033865692932743516 -0.0006690983542221032 -1.9990157910490987e-19)
(-0.001460272547598105 0.0012864556600993436 1.1385641442323336e-18)
(-0.005556627046700112 0.003316785774483218 2.8075475592568875e-19)
(-0.0115985904446599 0.004673109865988179 -3.7815386666415835e-19)
(-0.018780592689442332 0.005331496905525628 -1.4273769413724758e-18)
(-0.02629493560883987 0.005315639832192714 -3.4429075121441926e-18)
(-0.03335863976310389 0.00470740729692013 -3.8564128134869695e-18)
(-0.03929303033285854 0.0036255557161014463 -3.0316854362041884e-18)
(-0.04357273425256066 0.002193189348130065 -4.6102069724283445e-18)
(-0.0458304587585171 0.0005367521676903804 -6.455128194587133e-18)
(-0.04586549481627925 -0.0012101586445779056 -6.824036469777813e-18)
(-0.04365587747910601 -0.002905253372252223 -9.827777442523532e-18)
(-0.039368707617307146 -0.00439615012604378 -1.3613407482381298e-17)
(-0.03336375111087123 -0.0055235782271448085 -1.551857304317178e-17)
(-0.02619095735881522 -0.006129604376482305 -1.5603454543178712e-17)
(-0.018582868785931895 -0.0060724576292632984 -1.6216023169092884e-17)
(-0.011364106474226345 -0.005282234485672315 -1.4052107948127593e-17)
(-0.005307945285913476 -0.0037898788832530206 -1.1545780489925106e-17)
(-0.0014197893831353144 -0.0017081469695970257 -8.947740416051438e-18)
(-0.0004844857870660031 2.4811953717715025e-05 -3.9048463145865764e-18)
(-0.000910920933715195 0.0004736574488328277 1.7248699984396025e-18)
(-0.0037866839392267215 0.005077677153310676 4.311973446476144e-18)
(-0.0105978012793011 0.009706893069987928 2.5753216365389563e-18)
(-0.01998899126363168 0.012855833356926565 1.6523537997979707e-18)
(-0.030667661876543552 0.01436039135829982 6.335221334718544e-19)
(-0.04164852383821491 0.014223147859171935 -2.8584709100958797e-18)
(-0.05187438126094917 0.01260871277797597 -5.166336321634395e-18)
(-0.06041597033535603 0.009789465323337625 -6.301435322381035e-18)
(-0.06655595308007689 0.006071208730640085 -8.235018189793025e-18)
(-0.06978954153167649 0.0017797434115534038 -1.0708354215552648e-17)
(-0.06984127503432914 -0.002738641214729242 -1.2247427129287226e-17)
(-0.06668182794233868 -0.007116265646551251 -1.510102781444214e-17)
(-0.06054012543739764 -0.010967019468454976 -1.9876504246910192e-17)
(-0.05190491356934125 -0.013899256824801939 -2.2955249061995764e-17)
(-0.04151618424328476 -0.015540754226418912 -2.426209596015892e-17)
(-0.03035926261900425 -0.015583556366718022 -2.3839693719394224e-17)
(-0.01954559826909141 -0.013881168405550686 -2.18852969260897e-17)
(-0.010069345622695357 -0.01052828775487954 -1.8207857508681832e-17)
(-0.003288927485346998 -0.005869474294960696 -1.2812728721171415e-17)
(-0.0006951150982335061 -0.0011318321528365387 -4.926214775179106e-18)
(-0.0015904603021842227 0.0032967434418122456 4.614288829588842e-18)
(-0.005613675677062932 0.012216727256005505 7.704566652607858e-18)
(-0.015225078598705522 0.020127304585583233 4.267705122577874e-18)
(-0.027917967647805422 0.025413250652289714 2.7853009109131738e-18)
(-0.04187776523206101 0.027798252103998514 6.186377854276606e-19)
(-0.055986046208501124 0.027306041921942296 -3.3991142055166916e-18)
(-0.06897809146870577 0.02422581243476877 -7.77878242458021e-18)
(-0.07975241692825821 0.01902137924258539 -8.589507006808771e-18)
(-0.08747208926478572 0.012227218540001762 -1.1270933846644151e-17)
(-0.09154616389877948 0.004420089369299603 -1.571419530207115e-17)
(-0.09164887427239768 -0.003786549511825451 -1.596004980305307e-17)
(-0.08773891069307542 -0.011743055180130873 -1.7961557498074375e-17)
(-0.08007345256669662 -0.01877078128045035 -2.743827332588381e-17)
(-0.06921283543511174 -0.02418708468920712 -3.202587571907077e-17)
(-0.056016900563819236 -0.027350009198302924 -3.4419340025158865e-17)
(-0.041657534019028296 -0.027736726318529276 -3.2406615038101906e-17)
(-0.027490056467497394 -0.025084901032138958 -3.110715701099125e-17)
(-0.014741662850266828 -0.019508222103579352 -2.6556608532427695e-17)
(-0.005245643549261831 -0.011543556177052126 -1.9308310458574642e-17)
(-0.0013008514974086202 -0.002946779761487316 -8.227338929208452e-18)
(-0.002106123878520979 0.006666680716512167 5.131270404729278e-18)
(-0.0073690675241935705 0.020815810153451634 9.80298950989618e-18)
(-0.019694986307833104 0.03250398267246145 4.7425192499026876e-18)
(-0.03556906373385185 0.0400714795890809 4.771540974328479e-18)
(-0.05266054411875351 0.04321744972629565 2.5649800141090765e-18)
(-0.06969035924242195 0.042068275879673246 -3.756115010683981e-18)
(-0.0852136526497658 0.037091799915704424 -7.023562770646694e-18)
(-0.09800384392092186 0.028978607504723176 -9.04890512382643e-18)
(-0.10715113233793352 0.018519112040903354 -1.2456583277663547e-17)
(-0.11201349902759514 0.006563083093748632 -1.7783981287950734e-17)
(-0.11222969505787284 -0.005988303408019423 -1.7910831067937848e-17)
(-0.10773745376943021 -0.018183444133865297 -2.1483230927192223e-17)
(-0.09879108711631734 -0.029027805577541123 -3.035784994111773e-17)
(-0.08597479483699895 -0.037514497996344924 -3.557766647824106e-17)
(-0.0702146001494513 -0.04268638907257302 -3.9982637244097576e-17)
(-0.0528252398889195 -0.04374480574469803 -3.800006924457568e-17)
(-0.03537844414267425 -0.04023351859700357 -3.464388587995823e-17)
(-0.01932594678018014 -0.032186184368965406 -2.8889309902180614e-17)
(-0.007077381432636443 -0.020181291128489796 -2.1156650445889292e-17)
(-0.0019229437841968755 -0.0062023786027702145 -9.071581019253299e-18)
(-0.0026473291642174867 0.010990287680427284 4.3780014481224e-18)
(-0.009105477118468243 0.03168078381371889 1.3314318799561166e-17)
(-0.024090014755453706 0.0478678881432728 9.520810033927968e-18)
(-0.04309046170593115 0.05793980806334387 9.184354179334598e-18)
(-0.06322406127565358 0.06173653101131892 8.851454586214329e-18)
(-0.08303909396175004 0.05960550930301682 1.940184521061465e-18)
(-0.10093460960417476 0.05227528914750085 -5.000906597252678e-18)
(-0.11559682712889968 0.040717165664414835 -7.429940297166881e-18)
(-0.126082231997335 0.02600772100588377 -1.1155540471353197e-17)
(-0.1317271470600869 0.009283625426390399 -1.6220012967789694e-17)
(-0.13214584145016917 -0.008261359963079926 -1.6078078071192243e-17)
(-0.12724364618691958 -0.025367663162024892 -1.8750362637261612e-17)
(-0.11723900405357972 -0.04070896672427963 -2.7570762809142696e-17)
(-0.10269170913522961 -0.05292137881126207 -3.0301505246264657e-17)
(-0.08454195282350678 -0.060675774898300255 -3.639796783023851e-17)
(-0.06420804031308948 -0.062813884756691 -3.634440912981764e-17)
(-0.0434649211459793 -0.05857853731158383 -3.2768893448339105e-17)
(-0.024009412424313474 -0.04781129491117086 -2.470423704892516e-17)
(-0.008890039524604907 -0.03103883225954217 -1.947581984857773e-17)
(-0.002461982152886846 -0.010373368802010926 -8.137636690716078e-18)
(-0.0031877157497852086 0.016267195441245514 3.4229169002470786e-18)
(-0.010850512546030611 0.044812658355696755 1.0608562469808615e-17)
(-0.028518833186736113 0.06618956026036656 1.0872854928147707e-17)
(-0.05063033703010164 0.07894945850704692 1.3663684920776253e-17)
(-0.07372023387582176 0.08323936631875034 1.3006525226858922e-17)
(-0.0961722039778893 0.07976509407580823 8.125588775083379e-18)
(-0.11626136833592371 0.06961738190021712 4.731693758643883e-19)
(-0.1326325713007145 0.05411086418535469 -4.077157781942792e-18)
(-0.14435491421243773 0.034634629219510694 -7.708814858121535e-18)
(-0.15077770740180385 0.01261199282238864 -1.0534403791489091e-17)
(-0.15150491138562563 -0.01048569498495073 -1.0975909095818368e-17)
(-0.1463985516835489 -0.0331076692154621 -9.50965066239418e-18)
(-0.13560486650705011 -0.05360036236488249 -1.6984571570753306e-17)
(-0.1196024807468135 -0.07022135265688946 -2.003563907840683e-17)
(-0.09928067454227187 -0.08120978173680837 -2.1538679511250106e-17)
(-0.07610705712422988 -0.08494432313960372 -2.1663858870939928e-17)
(-0.05203383008046087 -0.08022659599193949 -1.9001429365184902e-17)
(-0.02902042111004301 -0.06654780155672108 -1.3806438131246755e-17)
(-0.010841800030063726 -0.0442338299282865 -1.0055051084751807e-17)
(-0.0030377173483110524 -0.015483217154031207 -3.946213303601486e-18)
(-0.003765690684310954 0.022479005138095472 1.5422426702450939e-18)
(-0.012693011682874152 0.06015703373773263 2.326265068775132e-18)
(-0.033113692533071885 0.08735472076333838 9.05934711924539e-18)
(-0.058306301900410126 0.10289756144750718 1.2418281105926903e-17)
(-0.08419252768070615 0.10743363097794069 1.2230670362099657e-17)
(-0.10902172153487143 0.10219712352752323 8.621588202747072e-18)
(-0.1310001400350644 0.08876218023128231 3.373724619364762e-18)
(-0.14879959834397485 0.06885463379871931 -1.017283189940532e-18)
(-0.16156765407755655 0.04419419744563756 -4.383271649357714e-18)
(-0.16871592124197288 0.016471831620100637 -6.645546324947501e-18)
(-0.16986199120295198 -0.012604092747565495 -7.638829830645608e-18)
(-0.16481760971179166 -0.0412374875689938 -8.270309814087911e-18)
(-0.1536160826249899 -0.06747966032706232 -1.0756910305939048e-17)
(-0.13658301387718302 -0.08920721186057669 -1.1224289986086504e-17)
(-0.11446463097427248 -0.10417137239297826 -9.765160744854675e-18)
(-0.08868880315496923 -0.11016528478206439 -1.1095690110776989e-17)
(-0.061322247704352406 -0.10536750649621096 -8.728035553412064e-18)
(-0.03457160977488393 -0.08870187406815783 -1.3687746443955958e-18)
(-0.01304875905589223 -0.060073172936746425 -3.553649103442876e-18)
(-0.003709150223787042 -0.021680361909702815 -1.6786827412057292e-18)
(-0.004425412841295568 0.029712100214636272 1.7061136108169124e-18)
(-0.01470410874225522 0.07784128143557739 4.9064597168807666e-18)
(-0.037973347092083 0.11141309854066075 1.0255903353952813e-17)
(-0.06615984700883541 0.12968730182089888 1.4488404934510817e-17)
(-0.09453010185898506 0.1340799603387718 1.4698527245037247e-17)
(-0.1212668924594397 0.12657270947390445 1.0839438379691085e-17)
(-0.1446008279902971 0.10936809412471832 5.876203138747309e-18)
(-0.1633340131579005 0.08467451876859716 1.575707492230778e-18)
(-0.17678753374496745 0.05454803149718022 -1.6125842507249425e-18)
(-0.18450677164820947 0.020904711830162365 -3.548973886233154e-18)
(-0.18616276309936794 -0.014382329444350203 -4.2270648235205486e-18)
(-0.181518905238336 -0.049353855086353884 -4.432869229024678e-18)
(-0.17045351163504416 -0.0818356594609535 -6.3446128180988395e-18)
(-0.15305073760688617 -0.10935345527812185 -5.8854681016495635e-18)
(-0.1297853659227559 -0.12913108582560834 -1.790438656474597e-18)
(-0.1019037088942268 -0.1382420028330693 -5.720450015049815e-18)
(-0.07146392719623794 -0.13401126516637105 -4.051393736893661e-18)
(-0.04084858893729727 -0.11449575961799485 2.685254326755439e-18)
(-0.01562912847162677 -0.07885473986586139 -9.354419130504872e-19)
(-0.004529580565248431 -0.029127086499672702 -7.7643448005708255e-19)
(-0.005216270671950622 0.038087542670886584 3.067417823767779e-18)
(-0.016964374974974605 0.0980243364693841 1.1238621802622186e-17)
(-0.04318906616914395 0.13835844772367853 1.3783700501665885e-17)
(-0.07415629408640552 0.15905418963535037 2.111916176830296e-17)
(-0.10443805342193464 0.16268408996721356 2.1514697505312983e-17)
(-0.13228087124775045 0.15226320052948505 1.403071011996226e-17)
(-0.15608764088228272 0.1307928631454099 7.973963243017277e-18)
(-0.17493950414173287 0.10103278810303545 3.502689925643918e-18)
(-0.188461429079061 0.06536049284717954 3.436609777539079e-19)
(-0.19643003742408113 0.025843807970555212 -1.3766020270463878e-18)
(-0.1986296859653981 -0.015589590027827518 -1.0846470087141123e-18)
(-0.19479272698214625 -0.0569448700371332 1.445395093719483e-18)
(-0.18460755216280897 -0.09594378001451222 -4.1462756074625896e-18)
(-0.16781814182652502 -0.12984424027447278 -5.06616626468941e-18)
(-0.1444614238662215 -0.15534434000164268 -4.34036350630797e-18)
(-0.11539181244066787 -0.16866996228311903 -6.119189488361021e-18)
(-0.0824427519149979 -0.1660123404477107 -4.46112130023108e-18)
(-0.0480012802691839 -0.14414506631206445 2.315167248944934e-21)
(-0.018712626636441954 -0.10097472280419834 -1.6237699075190581e-18)
(-0.0055753675703940535 -0.0380629276153962 -1.072371983397164e-18)
(-0.006233890071425908 0.04778309276722436 2.7237252416599376e-18)
(-0.019607328625134972 0.12090178222501069 6.26419611269914e-18)
(-0.04887684007824725 0.1680785416749043 1.3273961692099671e-17)
(-0.08217712071703277 0.19046417363112422 1.7383452677327488e-17)
(-0.11338295769653672 0.19236962658225576 1.855045122766947e-17)
(-0.1410413518528012 0.17821145778210887 1.4365874701273407e-17)
(-0.16395004260820717 0.15197851680031682 8.306716438942774e-18)
(-0.18167046426379596 0.11703370153504666 4.4274183155054865e-18)
(-0.19429627685475048 0.07602721267625925 1.224801111908179e-18)
(-0.20195486372982271 0.03106687967263764 -1.0140407235487717e-18)
(-0.2046231980406858 -0.016017058410759025 -7.338721935287081e-19)
(-0.20204131139258158 -0.06337166963803868 -1.748490373844357e-18)
(-0.1936935946743003 -0.10879944536605766 -6.349762136969501e-18)
(-0.17889353694791513 -0.14945044634668456 -6.238785631899839e-18)
(-0.1570483922377768 -0.181576236970571 -5.814751212037542e-18)
(-0.1283356535302404 -0.20047207875170242 -1.0113875790576814e-17)
(-0.09401809294790955 -0.20088396788970347 -7.502161417451741e-18)
(-0.05613927325892844 -0.17774382704249886 3.3320583723471862e-18)
(-0.022463228299521763 -0.12690652437775604 -4.000507674754875e-18)
(-0.006965530589547028 -0.048821240599147775 -2.7999070535847764e-18)
(-0.007676391546653083 0.05909866103124252 3.7543540976269535e-18)
(-0.022877799585093648 0.14673428461485216 1.0399402238279915e-17)
(-0.05520337102350894 0.20028046227256946 1.5118238496005224e-17)
(-0.08996880088854979 0.22296939154141426 1.584357063908935e-17)
(-0.12047153798346187 0.22171881206236232 1.994975187396747e-17)
(-0.14597222335266505 0.2027919828279867 1.5927467764858743e-17)
(-0.16597760249092927 0.171343576361196 6.3666349241460485e-18)
(-0.18078009764856637 0.1313450955637532 4.9734093007897414e-18)
(-0.19112644424735675 0.08561762310606255 1.5149118943103034e-18)
(-0.19761876164087053 0.03615260547181146 -3.3009402880466643e-18)
(-0.2005144805167151 -0.015507627095434835 6.193903760023573e-19)
(-0.19962286720617853 -0.06787357205845433 -9.317122632763688e-19)
(-0.1942498890304244 -0.1190778551527567 -1.2342080139275176e-17)
(-0.1832310487661085 -0.1664196006370122 -8.28907093660811e-18)
(-0.16516614222329207 -0.20590869114582722 -1.0145102637565925e-17)
(-0.13921922302239778 -0.23194233312990434 -2.0361356576184797e-17)
(-0.10558300741731176 -0.2375362400191012 -1.8322297288082536e-17)
(-0.06531763008967689 -0.2150783822746939 -8.973156344390396e-18)
(-0.027138313699943 -0.1571509461227372 -1.4180126190063682e-17)
(-0.008926593040604898 -0.0618626440050574 -9.427583844863071e-18)
(-0.00995137732833854 0.07255603706065804 5.3870692645914704e-18)
(-0.027217046516543088 0.17584101693592402 1.5307281112982446e-17)
(-0.062368610632981845 0.23433528656583677 2.1163373788679605e-17)
(-0.09697708816784034 0.25499619271579 2.8649825888800536e-17)
(-0.12418640507451692 0.248572806299714 2.850776990937437e-17)
(-0.14465409750929256 0.22365924469158602 2.3217051887184208e-17)
(-0.15899976515475642 0.18668623565487844 1.3890320495384776e-17)
(-0.1685186202142934 0.1421406219593641 7.82785403970653e-18)
(-0.17477479432322585 0.09283212600158273 4.047759096410623e-18)
(-0.1789352553514045 0.04043250894552481 2.9688328869920265e-18)
(-0.18160765211874907 -0.014017930761608611 6.146839797387009e-18)
(-0.18274637610448888 -0.06963488455609257 8.907440417252527e-18)
(-0.18156108835451312 -0.12517500034261866 8.941698123318294e-19)
(-0.17645449494149867 -0.17844283247159912 -2.8527895791643455e-18)
(-0.16513329602699267 -0.22558918768385286 -6.061473560758413e-18)
(-0.14543762475815977 -0.26037224648768503 -9.831152084544836e-18)
(-0.11586155018340308 -0.2739383679001464 -9.812853812367134e-18)
(-0.07542179203032237 -0.25534683077582077 -7.55229275775928e-18)
(-0.03314822647660314 -0.19217183898935927 -6.972785588385203e-18)
(-0.011920030337074514 -0.07786609452202083 -3.3993581922699955e-18)
(-0.013799002162482659 0.08918835670086676 6.594276433236241e-18)
(-0.03328686690629352 0.20854460362522761 1.806381788608916e-17)
(-0.07037234843201694 0.26886258183084166 2.5102356343043948e-17)
(-0.1018918665850396 0.2838888766447866 3.2665642861777175e-17)
(-0.12185518448515681 0.26968086205662395 3.6334014140436575e-17)
(-0.1333260068039825 0.23753283977560916 3.331386775600242e-17)
(-0.13849066995675008 0.19508872277010467 1.9139128280423602e-17)
(-0.13987546108392973 0.14707755825671587 9.078887366645917e-18)
(-0.13992860630898793 0.09599999834441382 4.382333889361628e-18)
(-0.1403724546175526 0.04296463300207891 4.788687349270148e-18)
(-0.14217038363324364 -0.011694366726734096 8.95079408901322e-18)
(-0.1454871116651507 -0.06790856095634018 1.879443969400899e-17)
(-0.14958018235629758 -0.12533802775779782 7.918215230336687e-18)
(-0.15261289231095335 -0.18270644794306246 2.2072284835479203e-18)
(-0.15152278270328906 -0.23688407365258735 -1.5112856247255425e-18)
(-0.1426918769322059 -0.2816113403794627 -4.1322032748734605e-18)
(-0.12229869391236073 -0.30642537846542867 -4.9861825939596414e-18)
(-0.08581607909783205 -0.29650107746473536 -4.558474900656672e-18)
(-0.041058641033881176 -0.23228975208210564 -3.686835029994523e-18)
(-0.01674593803991494 -0.09813418666126505 -1.5507458367879264e-18)
(-0.020303299388058575 0.11111802415063789 7.208912905375245e-18)
(-0.041991126214941846 0.2448606160536633 1.7643313929671385e-17)
(-0.07842975836549539 0.30074978957959453 2.697900959822162e-17)
(-0.1016023234500219 0.30496993043812226 3.897561852207359e-17)
(-0.10857528726977159 0.2801198394589276 4.3692688280607963e-17)
(-0.10599390844074463 0.23998171476736738 3.5851941578301366e-17)
(-0.09794279187819081 0.19294578556948608 2.099977336982956e-17)
(-0.08823320402132773 0.14343774153828692 5.602101350024281e-18)
(-0.08003941607014 0.09322726190751568 -6.488282522279778e-20)
(-0.07543595521049716 0.04260963879256034 3.3314169451523355e-18)
(-0.07562058351288999 -0.008921043045590838 5.8493203642363366e-18)
(-0.08098011128723683 -0.06221047648416657 1.2852130076299795e-17)
(-0.0910049096500495 -0.11798691164667525 9.724527142855889e-18)
(-0.10399129039459033 -0.17624913279499024 5.3945163781402584e-18)
(-0.116571570545836 -0.23527180301052217 1.8768465618747545e-18)
(-0.12397386409120986 -0.2898383737687312 -5.672699141189317e-19)
(-0.11989660508732386 -0.32892235627842364 -1.828882056154636e-18)
(-0.09467038416694525 -0.3340955833810218 -2.1300551675026693e-18)
(-0.051676078058588495 -0.2768977126203272 -1.7680303148442058e-18)
(-0.024581328609694735 -0.12498604619699683 -7.183512650127374e-19)
(-0.03066891819820234 0.14080497534432895 5.358915060405346e-18)
(-0.054022063921296014 0.2830744676754734 1.5272682198149595e-17)
(-0.08338434798078177 0.3247382906166576 2.5622611737430093e-17)
(-0.08898394303896004 0.31208669191966565 3.8003280363500075e-17)
(-0.07518737748528045 0.274262396075585 4.505679166367789e-17)
(-0.0529691789343453 0.22657616499517907 4.007698907855952e-17)
(-0.028027575737437905 0.17712675318308943 2.359003472128509e-17)
(-0.005048383952035603 0.12915216222470427 1.0763314345469048e-17)
(0.012611932140206266 0.08319938908378514 4.6134866679040985e-18)
(0.023001913435413895 0.03856239273580089 4.853960776043156e-18)
(0.024985360658633677 -0.006104754594988234 8.554710452602192e-18)
(0.018036344613309392 -0.05247056588656635 1.643925501653277e-17)
(0.0022637160130932438 -0.10227238138495254 1.2340072796490864e-17)
(-0.021256328296237054 -0.15691833114274645 7.713766540264622e-18)
(-0.049703882163439864 -0.21666830349403537 4.131700075628342e-18)
(-0.07819588004746385 -0.2787799620223422 1.6442632577660215e-18)
(-0.0989335804276793 -0.3336736776488944 1.5348485905151757e-19)
(-0.0965445601130044 -0.36061259174904076 -5.313048366695076e-19)
(-0.06480686827340172 -0.32227587558306686 -6.244843162733329e-19)
(-0.03676536129484662 -0.16024386882851002 -2.750983080420592e-19)
(-0.042631482836209475 0.1813139293495001 2.691674086957191e-18)
(-0.06409643369241091 0.3171871086284455 1.024787239384979e-17)
(-0.07342286500999344 0.33132494525930684 2.1446558756183412e-17)
(-0.04846747854672127 0.29738805952341035 3.408243498786713e-17)
(-0.005739224944215214 0.2463017963558129 4.234802369635126e-17)
(0.04038979622382213 0.1935812117873003 3.854220116260363e-17)
(0.08372144336781882 0.1456969366628179 2.3117311298855355e-17)
(0.11982781069481933 0.10343592111015878 1.0168973956580325e-17)
(0.14622450079075663 0.06564019324123577 3.840237462328507e-18)
(0.16180419460900022 0.03059982090961003 3.455224097642964e-18)
(0.1659183115286841 -0.003654896403027408 7.035564138020375e-18)
(0.15807933470522917 -0.0392711935430291 2.054357990078214e-17)
(0.13791484114308825 -0.07860152614700075 1.3434557233482812e-17)
(0.10542264927898315 -0.12416322532407732 8.653739803104006e-18)
(0.06174719781251394 -0.17833503986161497 5.2097544973173125e-18)
(0.010233399666071624 -0.2422080610051096 2.7770523769929007e-18)
(-0.04172354280587479 -0.3103461287932472 1.2159847803949068e-18)
(-0.07575970020226026 -0.36293242775849766 3.5337525363863723e-19)
(-0.07208201961832374 -0.36065102116701425 -5.509734608545152e-21)
(-0.0491913528462692 -0.20845527536391137 -4.3503566746533e-20)
(-0.03545744947154085 0.247557053744496 -2.368123487951258e-18)
(-0.05165878051769824 0.3343861806114197 5.12405088358434e-18)
(-0.017862625179139936 0.2940331329509116 1.500740628276959e-17)
(0.0514097407543044 0.2394293214966564 2.5688826765770427e-17)
(0.1259818708382581 0.1830950288023156 3.5178336541502473e-17)
(0.1946995040453731 0.1342132122030786 3.4282552791207635e-17)
(0.2526628785633071 0.0958192878009911 1.9812920376733202e-17)
(0.29724500240570406 0.06547190143295745 2.0145163123335763e-18)
(0.3282868382580076 0.04035575336709077 -1.1809980434634251e-18)
(0.3463219891004307 0.01826849420913846 -1.0952728378477358e-18)
(0.3515807674511578 -0.002733966048559616 -4.143359829633149e-18)
(0.3438189827781872 -0.02456227896377756 9.133253774081324e-18)
(0.3222526348275118 -0.04936193816466927 1.0606039230170923e-17)
(0.28556836331962754 -0.07980584106952489 7.991700975477693e-18)
(0.2321637935204404 -0.11951168344804622 5.15659599223944e-18)
(0.16222513615112483 -0.1731932463850383 2.989361028544636e-18)
(0.08069562181867516 -0.24172602818217484 1.545730272226149e-18)
(-0.0015372598753313376 -0.31528885925858835 6.893732927382593e-19)
(-0.05217367402561465 -0.3751440426178901 2.4858226395400794e-19)
(-0.036032915632315435 -0.28449435879424245 5.449773050064268e-20)
(0.044153045590002646 0.29485636163540535 -1.4669859592072562e-18)
(0.02178534960747876 0.30094222039206087 -9.49963934874483e-19)
(0.13837164641451802 0.20095761608702722 7.416973818882918e-18)
(0.26703545364956816 0.13855093270329133 1.6854814471810155e-17)
(0.36353896467529084 0.09366035505515533 2.3672699275992273e-17)
(0.4389007855614763 0.06152760168745072 2.464190126155878e-17)
(0.4963827010669579 0.0404445166337174 1.620692459483844e-17)
(0.5370146578235855 0.02609936365233553 6.5215998732097394e-18)
(0.5637148532122771 0.015342358142138406 1.560790369460974e-18)
(0.5787662661447855 0.006429141007448155 8.605164970357094e-19)
(0.5831656347958649 -0.0018124007442887002 2.8617886352797412e-18)
(0.5769624956619043 -0.010391491305348015 1.0481369762178975e-17)
(0.5593105794621492 -0.020472955017121763 9.867006760960847e-18)
(0.5281252550299239 -0.033773921721936086 6.581480758128167e-18)
(0.4793306805241082 -0.053326284926435014 4.0637764288019204e-18)
(0.40917467607126456 -0.08471750736640553 2.3658185657427284e-18)
(0.3149003145131881 -0.13467419152772145 1.2761748298433994e-18)
(0.17765088447985536 -0.2087334749457162 6.184840260453016e-19)
(0.033862121395415036 -0.31747158027627886 2.544712941796946e-19)
(0.05702010853207927 -0.31699334165284954 6.623321713255024e-20)
(0.35017792028228295 0.05476033422338798 -1.0275575341772614e-18)
(0.3809420573127534 0.15579343653444072 -2.8567711351017157e-18)
(0.5431618358895389 0.12752357030444691 1.6916167175948226e-18)
(0.6810090562625314 0.08631017854792405 1.0002647925955827e-17)
(0.7515122387412585 0.05199119499053205 1.6690822708575233e-17)
(0.7928898580809813 0.030784690133150185 1.740456952834499e-17)
(0.8201713610062589 0.019412744713970205 8.630514242842218e-18)
(0.8373334580134616 0.013173045019957984 3.567050547073275e-18)
(0.847675883057159 0.00939057250916477 1.2509826671222364e-18)
(0.8530941396814749 0.006710934741922305 9.398384197455618e-19)
(0.8542224242982992 0.0043936283351044035 2.7937160956559598e-18)
(0.8510984943782562 0.0019676873323084747 1.0641707204207235e-17)
(0.8432973238229019 -0.0010748368821955885 5.881693348271439e-18)
(0.8295813927627559 -0.005682830136935992 3.021077887540179e-18)
(0.8068245859169113 -0.013689723536673798 1.6529064484148235e-18)
(0.770691208641884 -0.02913037915137896 9.285223130068536e-19)
(0.71185395195588 -0.060024741979543945 5.036159703393865e-19)
(0.583845175800198 -0.10637214574858839 2.5015781690459414e-19)
(0.39831317384937626 -0.1452703906193086 1.062827774261507e-19)
(0.39492302115824823 -0.06830432530124296 2.8907663008986407e-20)
)
;

boundaryField
{
    movingWall
    {
        type            fixedValue;
        value           uniform (1.0 0.0 0.0);
    }
    fixedWalls
    {
        type            noSlip;
    }
    frontAndBack
    {
        type            empty;
    }
}

// ************************************************************************* //
