/*--------------------------------*- C++ -*----------------------------------*\
| =========                 |                                                 |
| \      /  F ield         | OpenFOAM: The Open Source CFD Toolbox           |
|  \    /   O peration     | Version:  5.x                                   |
|   \  /    A nd           | Web:      www.OpenFOAM.org                      |
|    \/     M anipulation  |                                                 |
\*---------------------------------------------------------------------------*/
FoamFile
{
    version     2.0;
    format      ascii;
    class       volScalarField;
    location    "5.04999999999999";
    object      p;
}
// * * * * * * * * * * * * * * * * * * * * * * * * * * * * * * * * * * * * * //

dimensions      [1 -1 -2 0 0 0 0];

internalField   nonuniform List<scalar> 
400
(
0.0
-9.638843178024848
-20.306083516479713
-27.506841436794375
-30.3557356373629
-28.325191797631206
-21.468600123908754
-10.396192071150628
3.966126093541843
20.466121719977146
37.783464772131666
54.50715820943738
69.21696770607025
80.60232157245846
87.60455232504677
89.61945952998677
86.84724838379516
80.42829303665671
73.02964986950676
70.55919136817944
71.91585400734292
68.89393190146401
64.35756772167157
61.15483716096496
60.27704094307966
62.44074187419918
67.78055072863282
75.97845499861124
86.46697461668687
98.46756174612102
111.05494400349309
123.22903654363661
133.9926390177861
142.4601157585178
147.96357699086457
150.09855086833682
149.0125690014211
145.64179001311032
139.59548200920577
130.40542753127332
133.38555896464524
123.60258004720899
118.21958791675439
115.41857692241969
114.5675089974983
116.56560958188024
121.40011684716352
128.709403108756
138.01845362296237
148.66874888000098
159.86696610553983
170.74580536951984
180.42336305051833
188.10328162675088
193.1648536547638
195.12051769721606
193.93737636175393
190.69832849774753
184.5101584759342
173.0654741889399
189.024862688928
172.4300779038574
165.31708393279996
162.07859023587613
160.74977394072215
162.53289293120363
167.2152703203785
174.30944967261706
183.35340100745083
193.72188876299953
204.66206069185105
215.3492349677821
224.9221138955728
232.57517261052118
237.64657450053235
239.50479186771955
237.95018328920108
234.2569248234001
226.88623144924117
211.59281615056085
244.09702988042892
222.7752652629852
214.4103454416999
210.85865364500685
209.21810393810907
210.95597291131728
215.69907595542782
222.8527620789252
231.96478363208763
242.43475635393156
253.54028468065138
264.4794337181622
274.3873653833002
282.42564056870515
287.86115683226984
289.87099724561415
288.061990119597
283.92346058385664
274.8326096938762
253.97117940358876
295.3868539665862
269.0862538272763
259.1577919200332
255.20053297424903
253.34775771406007
255.2938279978365
260.512725878473
268.28733692062673
278.1476254639683
289.48967308798575
301.5891824467887
313.628606186118
324.6935942398196
333.86182790799097
340.27358414776097
342.8517070129771
340.9734460082656
336.3829657111328
325.4741719513908
299.12753106084983
341.6262018020192
310.1732219292885
298.6735020704231
294.44149527718764
292.62926467663965
295.16783610912273
301.37034624119315
310.38071933116674
321.69489082469374
334.688467588002
348.6166746159701
362.6256610094588
375.7257603038981
386.87656956667996
395.0446471344903
398.83538996055853
397.34501787987705
392.56050446295706
379.81382995112216
347.69453113682647
382.11893728283843
345.3868192549497
332.5215930801842
328.37451198489646
327.0482473600731
330.71233127436386
338.49724386696454
349.39549181329954
362.86783628047334
378.27317180506424
394.8520242971679
411.71607725538837
427.79468500434297
441.911667517068
452.82058015971717
458.72712488743514
458.36080328521143
453.92864533249605
439.4475965259879
400.8293224079282
415.6546116883419
373.22679878253655
359.26320497052114
355.7495954017268
355.5398351281218
361.03382605942977
371.13733333019417
384.67141660443275
401.0700607039924
419.6946477558301
439.79664832759744
460.4790391320753
480.6049626809062
498.8638119617369
513.7659169821895
523.0175795113984
524.8545127101983
521.6766140711796
505.78454159690097
459.6896196869333
440.736897467119
391.9200988265971
377.3173557884219
375.29949937611303
377.1085943405234
385.37420412390077
398.7107893170766
415.74031470518526
435.8926078117279
458.57112100402736
483.0905369308291
508.6003835353983
533.9461904623771
557.7144613152115
578.1686728255678
592.405098409886
597.9966382945316
597.5010471284916
580.8515103976908
525.9447429431941
455.5170916839462
399.21518260090244
384.8189589214064
385.6851623920216
390.83973231442735
403.16744351527643
420.8926434329523
442.4085272145835
467.18939696818586
494.7487395830494
524.5509705085665
555.8899247974867
587.6868950545697
618.5058535107227
646.4122842069918
667.7919528921209
679.3348395820489
683.732081589343
667.5539911788036
602.0093233795493
457.4918466498002
391.9526364499177
379.3809650846684
385.39503566346815
395.8873686609161
414.09664936682196
437.7029226697122
464.8554606702092
495.17117542503473
528.3834034038273
564.2333522031149
602.3084199428137
641.7565979314877
681.2699628356189
718.861833920002
750.1650715713886
770.7226625735062
783.4462725035919
770.1257220262577
691.452156224392
442.7536421293857
365.488090202455
358.1742367984829
373.1552480724602
391.97614925783466
418.599158495488
449.9684832387565
484.03774290625233
520.7526008737866
560.231950863611
602.6675404335333
648.1423409323852
696.2461453900556
746.0311551982011
795.7351758090351
840.3433672779132
874.0561845357258
900.4886225374785
894.8515220859681
799.955394860128
404.73040514550854
312.98046045118843
317.77219939380427
347.98002884575504
379.57902823627035
418.05293432155617
459.46720595129403
501.8030864266676
545.6457290861712
591.7339015487811
640.9373783453877
694.0909687678443
751.5246953362266
812.9794137743861
877.3637427580409
939.4505805324795
991.9967456381362
1039.9606422375084
1050.3880972968898
936.2578543535595
331.1771896877143
224.65341307457192
253.46205814728572
308.0748955270388
359.3001279530538
414.5852877736159
468.8630830776889
520.8418828668478
572.2973723357151
624.9223645279958
680.5599151629996
741.1046734280067
808.0035566909456
882.1403630450106
963.844112882908
1048.8400516916631
1128.3949394371984
1208.7403193303803
1249.5426989783934
1117.2547962708961
188.1479338820341
85.603206613531
165.76845714486382
258.6246537643983
338.4372185261022
415.9772748867544
485.18076662655164
547.0360081313391
605.41833567505
663.3660782944596
723.9593481419391
790.3657404286179
865.4266980774536
951.6125675410458
1051.486453599348
1163.542307126053
1279.0483712669736
1408.057316299967
1513.1541874797304
1389.8514641039533
-92.59441484771168
-119.4218929949033
64.7451275444558
215.39434211676456
332.1742704355968
434.0133629246639
517.1375402678066
586.807144091477
649.592538052659
710.1536245017129
772.9266376434872
842.3514828289765
922.8082649246242
1018.8057252359138
1135.417190157568
1275.6344493976362
1436.2582783098094
1633.0938061444144
1849.7351982099299
1823.106220421288
-561.8384674565708
-374.15629007237175
-77.86789222274848
142.8040768321668
319.612108106693
455.269236700626
554.5429344769017
632.3061577890261
698.4357339230378
759.7379119346841
822.5481519730471
892.8058454750716
976.8968969988148
1082.4223585474335
1218.025496083579
1396.9747300365232
1634.1121309796679
1917.629863199054
2231.978605742843
2455.132313024765
-1611.2986974491082
-636.3090462585618
-169.62559486282535
105.63321676274491
357.9151423727332
526.6628343084982
630.587427412661
705.7248518633602
766.4599223235891
820.8112240730383
876.3269675493445
939.5468660328061
1017.7363717386276
1120.5922913001814
1260.7689431751703
1469.625394008762
1795.2965088348017
2178.1404094797244
2693.123021253368
3797.3768425812627
-4300.81013252384
-803.6907064030349
323.37588695319243
560.376917394103
729.6741461809372
816.4940009945734
850.2938984263358
874.7665902816047
898.9026765421416
924.1513538360921
953.5626553976142
990.0913875538245
1037.075923951486
1098.962211925245
1182.1786932126515
1315.3414528405835
1557.4679929781091
1922.4559893240316
3086.7716137657676
6778.598906071168
)
;

boundaryField
{
    movingWall
    {
        type            zeroGradient;
    }
    fixedWalls
    {
        type            zeroGradient;
    }
    frontAndBack
    {
        type            empty;
    }
}

// ************************************************************************* //
