/*--------------------------------*- C++ -*----------------------------------*\
| =========                 |                                                 |
| \      /  F ield         | OpenFOAM: The Open Source CFD Toolbox           |
|  \    /   O peration     | Version:  5.x                                   |
|   \  /    A nd           | Web:      www.OpenFOAM.org                      |
|    \/     M anipulation  |                                                 |
\*---------------------------------------------------------------------------*/
FoamFile
{
    version     2.0;
    format      ascii;
    class       volScalarField;
    location    "5.04999999999999";
    object      T;
}
// * * * * * * * * * * * * * * * * * * * * * * * * * * * * * * * * * * * * * //

dimensions      [0 0 0 1 0 0 0];

internalField   nonuniform List<scalar> 
400
(
299.7936479174757
299.6935924741767
299.8497295330903
300.044984057113
300.2038195804445
300.3429673271315
300.4676713576145
300.57788091067937
300.6750406706286
300.75900789405375
300.8275708265623
300.8753710952323
300.8946598984715
300.8778064854398
300.8121645888517
300.6864241903762
300.4965384441399
300.2480608204512
299.9266919064396
299.821792810222
301.22130768519594
302.8170647801142
303.95673112206396
304.8199196778027
305.4318095494697
305.8580104654165
306.12944150341616
306.27254888899665
306.3154268722131
306.28084541039146
306.1878204382248
306.04478739891783
305.85025476458657
305.6019015699067
305.3045191763665
304.94594841571904
304.4967905343389
303.9558450398029
303.11585072379086
301.1803540257086
300.9099975934294
301.91731814810316
303.2786067343603
304.3741788131572
305.2059875508798
305.87395317417884
306.3852516487302
306.75989769266266
307.0235037171845
307.1921678993679
307.27586487296446
307.26777245110594
307.1437991508178
306.88226730160727
306.4679047900237
305.8749323713796
305.06658316233245
304.11569788016055
302.97035081035
300.8477380006637
300.85030220288314
301.554738695565
303.24129640113864
304.6033885578902
305.6594438567297
306.56150125270744
307.29484343816966
307.8751487751077
308.32641860895444
308.65816192280516
308.87293875199725
308.9525659099918
308.8572205888041
308.5538740856279
308.0201642090146
307.22560024695366
306.1315478440828
304.8713396198743
303.4568764954107
300.8548033832724
301.0145669888196
301.7153029061282
303.77963162897674
305.4409017439281
306.7401357125221
307.87802634967284
308.8250884152886
309.5953352083632
310.2121395880544
310.67910024441045
310.9908388225615
311.121879057237
311.0273545317811
310.66864272846516
310.0197455454423
309.04330854537943
307.6908385341866
306.1474708180668
304.4387834049173
301.0818433442195
301.15626087501977
301.82901806536
304.24741354827734
306.2004068906214
307.73910798365114
309.10971905251904
310.2700165129059
311.23172415307533
312.0169209166704
312.6236805021215
313.04092587041646
313.2378801659523
313.1618310048537
312.76805638571494
312.02538882221234
310.88567143929913
309.28508354388384
307.4549266360616
305.4293257951549
301.30011854806656
301.30742121079436
301.97203286503367
304.75970684923846
307.0089520508723
308.7871975407478
310.38910332078405
311.7609922997436
312.9125402538601
313.8645204838075
314.60973598581285
315.13174360119075
315.39665673393887
315.34664941586135
314.9319881848182
314.1154088293124
312.83431381003044
311.00415982701816
308.8942710188604
306.52587741324527
301.5434547722377
301.4811366029455
302.1563678820723
305.3359476566704
307.8878424722411
309.9043296596397
311.7331347586651
313.31000649629135
314.64359501690416
315.75419354665183
316.6300435749119
317.2498289886459
317.5795833078615
317.5606491728396
317.1391623424781
316.27030031505853
314.87288910202295
312.83660875173285
310.46798812595347
307.7551375106146
301.81492730249846
301.66802564081456
302.3406134608443
305.93480013111247
308.79187618729173
311.0376382909323
313.08134980457976
314.84860967990755
316.34865201544915
317.60327190482815
318.59794682695684
319.3083799700883
319.70336766546325
319.7262075153183
319.3182323975852
318.42430171518106
316.9396957522286
314.7246071237735
312.1334574811652
309.1055668546483
302.0985338712231
301.86708611326526
302.499827078885
306.5400579643188
309.7012147462539
312.15710300145264
314.3939750185946
316.327212889831
317.96933895561386
319.3473046227189
320.44667780046996
321.24247789872743
321.7082847103273
321.79169954004067
321.42646374665
320.5418449841779
319.0017451613683
316.63291284160766
313.8661813483809
310.5875414683377
302.3838726886383
302.08042451563506
302.6044893982015
307.13955634085795
310.597863604061
313.2301998936023
315.62572190212643
317.68817250222196
319.43764487180596
320.91196327695457
322.10087073593604
322.98169148124776
323.53368181118
323.71040980401915
323.43240333120156
322.60414896887806
321.04384345878225
318.53342893370814
315.63231636491355
312.2087367284304
302.6537171436039
302.31426192958713
302.6130185974713
307.71962462212645
311.45401306626076
314.2091760842341
316.71509886826897
318.85683551179477
320.6681367452497
322.2056223331815
323.46864149158336
324.44146799080863
325.10923780956807
325.4322415124009
325.3097103660778
324.60815558484506
323.07531151768495
320.41392631643237
317.3828269018119
313.96267788184707
302.8777784714439
302.5713540663643
302.47601956543593
308.2909475296833
312.25527015271047
315.05246529514466
317.6059923733951
319.7625012613905
321.5774889998063
323.1362395048231
324.45397448012864
325.52917972805784
326.35446979117324
326.89713768619816
327.0263322341323
326.55471374494937
325.1232556162028
322.2792607502219
319.0446567141264
315.8117110925652
303.03589378914035
302.8319303552376
302.16691744289375
308.9353731247547
313.0441451840061
315.75947604759324
318.27067075341495
320.3554413741548
322.101113292847
323.6286023391872
324.97248235799816
326.15574821404886
327.1860010828243
328.0385902914794
328.5473787673197
328.4564001695962
327.2605179047845
324.2124853601345
320.551773900655
317.585803422781
303.1191797981301
303.18090310344434
301.8266997231778
309.6842477072062
313.7063739177078
316.1989165977238
318.5877232243356
320.52597692846973
322.15066770343344
323.6143042142683
324.9628168604602
326.25753206741524
327.5412858842812
328.79967247103275
329.84352317591674
330.3523451590082
329.6693573598981
326.5352215723926
322.01495706554084
318.88390667422
303.0883490264535
303.56921724883324
301.95684764953774
310.7331669890542
314.1564110624669
316.3417845502937
318.61305346643866
320.3771945950977
321.87445786797906
323.28306310008867
324.62186560906355
325.99889694346643
327.51368168962233
329.1779044960222
330.8252479951323
332.1110907094444
332.31435073387985
329.4862637818087
323.67679059855885
319.3358928440015
303.71252201713844
302.3252907282627
303.72037623368595
313.9951085013787
316.244262275677
317.7299572130466
319.5432255237059
320.88549562466903
322.11398621063205
323.3747655100134
324.6792450650859
326.0947146545703
327.71277874379626
329.5606982032729
331.576570670848
333.5351090222011
334.7650303756257
332.9295099798241
325.90029625842453
318.07310078505697
306.9225648492311
303.0120682364007
311.3636599329018
318.2119866003184
318.2544883712873
318.8729684441278
319.87228628900255
320.9455215762494
322.24591763421574
323.6988162540079
325.25231674681464
326.9385977051021
328.8257334903172
330.97976305147154
333.4907495063751
336.21301409247286
338.54115767181827
339.5190756390006
332.6248116641154
312.6316172204913
308.54342900558254
320.33479410396444
332.8812600563476
314.1933873580211
310.55517889541113
313.781955743568
317.0056387997162
319.94805475033314
322.7940284150515
325.3953060278316
327.7691650471886
330.04299400864176
332.36420436131084
334.9218806906911
338.040868194633
341.8389968081903
346.1811622626289
352.4993676940688
349.4598433071994
307.6378673650646
308.11846566787705
287.69496013626343
351.7079255074549
344.5797527448643
341.0387617631637
342.3188223050196
342.887343148437
343.0436770608793
343.28929683704905
343.57757922968943
343.87322511936054
344.1749381894148
344.4369657027386
344.64681026342373
344.8277947077248
344.81642428737473
344.40686872881423
345.7047200083611
343.2398486045937
314.41198309026464
365.63897339429036
)
;

boundaryField
{
    movingWall
    {
        type            fixedValue;
        value           uniform 350.0;
    }
    fixedWalls
    {
        type            fixedValue;
        value           uniform 300.0;
    }
    frontAndBack
    {
        type            empty;
    }
}

// ************************************************************************* //
