/*--------------------------------*- C++ -*----------------------------------*\
| =========                 |                                                 |
| \      /  F ield         | OpenFOAM: The Open Source CFD Toolbox           |
|  \    /   O peration     | Version:  5.x                                   |
|   \  /    A nd           | Web:      www.OpenFOAM.org                      |
|    \/     M anipulation  |                                                 |
\*---------------------------------------------------------------------------*/
FoamFile
{
    version     2.0;
    format      ascii;
    class       volVectorField;
    location    "5.04999999999999";
    object      U;
}
// * * * * * * * * * * * * * * * * * * * * * * * * * * * * * * * * * * * * * //

dimensions      [0 1 -1 0 0 0 0];

internalField   nonuniform List<vector> 
400
(
(0.0002898330816190444 0.0027910296002028653 2.0038572406415014e-20)
(0.0004607953324522027 0.00515007399899842 9.763215654018777e-20)
(-0.000829209177480506 0.006327881243358721 7.614761953340859e-20)
(-0.003274400303122811 0.006955617760111013 1.4883536734851216e-19)
(-0.006290486924582928 0.007227984783955568 -3.335877433496054e-19)
(-0.009470289114101211 0.00724146490260226 -8.237029931270534e-19)
(-0.012467739838715085 0.007055458633703333 -1.1481432555244664e-18)
(-0.014989033194336037 0.006718053446366824 -1.1888827177919307e-18)
(-0.016810937358670324 0.006271225874831446 -1.428702226335536e-18)
(-0.017778084533223854 0.005754065197134987 -1.953601454389851e-18)
(-0.017803551532474666 0.005206545546223183 -2.2832273024447045e-18)
(-0.016873971448867094 0.004672558969740701 -3.1608819261246586e-18)
(-0.015055831294309601 0.004201054922570074 -4.2454539965800064e-18)
(-0.012501450414119044 0.0038462961717815303 -4.9581883261351626e-18)
(-0.009454755800562953 0.0036686389223187137 -5.2609624511679675e-18)
(-0.006252912550781598 0.0037230565515888247 -5.505052830823459e-18)
(-0.003300356446084915 0.004026037584040988 -5.122333163068587e-18)
(-0.0010397407498552872 0.00450685964412799 -4.995826476817342e-18)
(0.00017506773687512236 0.004854663548928802 -3.2955243406911136e-18)
(0.0005543007892127636 0.0036053522764702643 -1.3511219266197254e-18)
(0.0003381060227119738 -0.0006705962168796008 2.883514401648879e-20)
(-0.0014681256806996328 0.0012942844956482199 9.653274621643692e-19)
(-0.005585426839586061 0.003335787152158517 1.2465769979782515e-19)
(-0.011659365126278532 0.004699978200988631 -1.667595445584101e-19)
(-0.018879604244142572 0.005362426244332612 -1.1114120712320555e-18)
(-0.026434211190671963 0.005346784611865596 -2.66003176550901e-18)
(-0.033535838823289796 0.0047352016701246065 -3.713271385932745e-18)
(-0.0395017611747895 0.003647054991896626 -3.272189687141263e-18)
(-0.04380341609581419 0.002206223270070343 -3.7217821576851914e-18)
(-0.046071379092494265 0.0005400086286950184 -5.768068067136135e-18)
(-0.0461039661952243 -0.0012170188177117514 -6.170391662902607e-18)
(-0.04387950625622581 -0.0029215297335043145 -9.204453449863388e-18)
(-0.03956657707258575 -0.004420157638035974 -1.3036785920594325e-17)
(-0.033527565658370846 -0.005552757096978279 -1.5149443491442252e-17)
(-0.026316023273587553 -0.006160700595281988 -1.544237195298497e-17)
(-0.01866870918471122 -0.006101803942291273 -1.7262027673990552e-17)
(-0.011414491112803243 -0.005306250691324748 -1.5268889947658126e-17)
(-0.005330378536738238 -0.0038055572976814743 -1.220717704180619e-17)
(-0.0014250929788591445 -0.0017135264052149735 -1.0434679473309448e-17)
(-0.0004842940995540567 2.688163731329202e-05 -5.049254969551443e-18)
(-0.0009158830350263085 0.0004786885565035722 1.4951701222353379e-18)
(-0.0038062850959434597 0.005106624586184156 3.67429989644317e-18)
(-0.010652383632049069 0.009760348529741461 1.8916274924690516e-18)
(-0.02009239708949209 0.012926721521692454 2.4217692534926066e-18)
(-0.030826621084057707 0.014440038593859113 9.671858338605306e-19)
(-0.04186477346785343 0.01430245084085617 -2.702259731967847e-18)
(-0.05214394883251128 0.012679082436654858 -5.469332238059155e-18)
(-0.060729495818264256 0.009843686130289372 -6.4885535687422035e-18)
(-0.06689986034025723 0.006103883844971018 -8.087235499379012e-18)
(-0.07014741816840347 0.0017876640649601711 -1.0405841689348836e-17)
(-0.07019547725627401 -0.0027562430707593253 -1.1569807366368192e-17)
(-0.06701514298979686 -0.007157602695240811 -1.4144518945764154e-17)
(-0.060837404468112005 -0.011027844366517726 -1.874747868464196e-17)
(-0.0521545471407931 -0.013973248579876339 -2.253483831824966e-17)
(-0.04171130805371964 -0.015620017367002786 -2.4166909510066954e-17)
(-0.030498556607970993 -0.015659377935977655 -2.44274573346732e-17)
(-0.019633202197508613 -0.01394518073642262 -2.237462289167777e-17)
(-0.010113838927869274 -0.010573588338648411 -1.8503022639826772e-17)
(-0.0033040685891162795 -0.005891811085003553 -1.2839673170804486e-17)
(-0.0006984487267773707 -0.0011343973361658218 -5.1170552952645516e-18)
(-0.0015989714823151009 0.003314318662875729 4.099300746383347e-18)
(-0.005642317987860662 0.012278781670774123 6.109201883173306e-18)
(-0.015299753388877192 0.02023010932726412 1.335809610218917e-18)
(-0.028054165569578047 0.025544553411370696 2.4107861271395995e-18)
(-0.04208175100627194 0.027943123982839886 7.3067253658544115e-19)
(-0.05625872530298216 0.027448821167727403 -3.6633700006611264e-18)
(-0.06931397054227592 0.02435172961117856 -9.002719384295866e-18)
(-0.08013995913444925 0.01911791381641912 -9.024357260266292e-18)
(-0.08789508806126432 0.01228503392689883 -1.1351644287231784e-17)
(-0.09198528366855918 0.004433670620827713 -1.5837492964165563e-17)
(-0.0920834434538962 -0.003818413402104163 -1.5244771731581137e-17)
(-0.0881488105253774 -0.011817134925448829 -1.6550816359740252e-17)
(-0.0804409358575473 -0.018879640549425186 -2.4594274254288572e-17)
(-0.06952414483131138 -0.024319718339701573 -3.177683174898958e-17)
(-0.05626352600822642 -0.027492811703561992 -3.437131939798951e-17)
(-0.041837181048618485 -0.027874843713154834 -3.439040230300328e-17)
(-0.02760650074670744 -0.02520400100178416 -3.186035213546114e-17)
(-0.014803490024102701 -0.019596392473051658 -2.6774494389446114e-17)
(-0.00526842590500057 -0.011593135438812463 -1.7335845023149855e-17)
(-0.00130706367249946 -0.0029589913438498377 -8.039272697461339e-18)
(-0.0021167970556806863 0.006700969652798995 4.879288979076209e-18)
(-0.007403207168056721 0.020918738449250955 7.002003460638908e-18)
(-0.01978174141330683 0.03266480400715568 3.7398141570867064e-18)
(-0.0357244035760512 0.04027158206116634 4.9116362360789105e-18)
(-0.052889875854883854 0.04343503345520203 3.034801569528999e-18)
(-0.06999370627630679 0.042280808395540936 -3.878838926852628e-18)
(-0.08558447616505536 0.03727813928168277 -9.054219490955614e-18)
(-0.098429439699986 0.02912083021467281 -9.289650104494143e-18)
(-0.10761412857371959 0.018603862473705393 -1.2121024487100976e-17)
(-0.11249340110505181 0.006582583215925991 -1.721999768216386e-17)
(-0.11270470179341596 -0.006035658931641555 -1.690261985857327e-17)
(-0.10818637882471945 -0.0182928947972048 -2.0364953854187154e-17)
(-0.0991951554744593 -0.029188627583813485 -2.9661619221188494e-17)
(-0.08631923965716545 -0.03771091507405897 -3.586205447308199e-17)
(-0.07048995208986247 -0.04289898455457886 -3.830476397470822e-17)
(-0.05302831916344452 -0.0439524203501522 -3.851613732796903e-17)
(-0.03551228656423382 -0.040415552764105224 -3.6044934879633213e-17)
(-0.019398512670363983 -0.032325119440927176 -3.042740089185527e-17)
(-0.007104914338549188 -0.020264993661423765 -2.088777020134277e-17)
(-0.0019309488721923225 -0.006227764352517235 -9.250393781090018e-18)
(-0.002658721198975651 0.011043245954277166 4.0311750261453075e-18)
(-0.009141114535748689 0.031828193809308784 1.2070514646678118e-17)
(-0.02417947121593104 0.04809049904511005 9.287400544064349e-18)
(-0.04324907869390819 0.05821197399404214 9.912417064292292e-18)
(-0.06345632375070034 0.06202931752177363 1.0167338197301203e-17)
(-0.08334439963234881 0.059889516889151055 2.454373769740182e-18)
(-0.10130608533963902 0.05252314585949607 -5.359386019966022e-18)
(-0.1160217965365733 0.0409056965297747 -6.988012657428761e-18)
(-0.126543668088701 0.026119726433652127 -1.0219728143993557e-17)
(-0.13220514742692258 0.009309158250653782 -1.500561640206199e-17)
(-0.1326192990208918 -0.008324236752735933 -1.4693607204931665e-17)
(-0.1276920157521815 -0.025512736234951507 -1.7801085676514934e-17)
(-0.11764399237185559 -0.040922354304755 -2.839928868503353e-17)
(-0.10303871194694206 -0.05318272505219915 -3.408191725537933e-17)
(-0.08482123832564299 -0.060960043825371533 -3.615430065786795e-17)
(-0.06441580031858422 -0.06309370472227187 -3.6909566892427974e-17)
(-0.04360328359111146 -0.05882699519473705 -3.485329015632214e-17)
(-0.024085302136885804 -0.04800486694570825 -2.898058640829543e-17)
(-0.008919199664585292 -0.03116015275834701 -1.714973235453857e-17)
(-0.002470622592629003 -0.010413673514562185 -8.105699690327498e-18)
(-0.003198331485395419 0.016338577962235642 2.944020824003573e-18)
(-0.01088351476919563 0.045003478118910985 9.227005873039406e-18)
(-0.02860127648314987 0.06647184928193575 1.08697403780664e-17)
(-0.050775852808794986 0.07929059897382211 1.5111797100137322e-17)
(-0.07393250158042194 0.08360362518187431 1.6715172352555645e-17)
(-0.09645040249660479 0.08011668652087911 9.64874194870348e-18)
(-0.1165991456971805 0.06992321006000672 1.4327021231577417e-18)
(-0.1330184803249747 0.0543430033707866 -2.8749358410361188e-18)
(-0.14477375929192846 0.03477241576850658 -6.2378723574030084e-18)
(-0.15121180672889845 0.012643553339326175 -8.857652860315329e-18)
(-0.15193554185343233 -0.0105626036561219 -9.185094931680065e-18)
(-0.14680745126326192 -0.033285562317370614 -7.907894916366559e-18)
(-0.13597561597607288 -0.05386261629860774 -1.6015790350360855e-17)
(-0.11992173935409689 -0.07054354712433382 -1.9538917811336325e-17)
(-0.09953920616342778 -0.08156184585993183 -2.0158090890408682e-17)
(-0.07630075831263318 -0.08529320307090249 -2.1561158941245987e-17)
(-0.05216383455536419 -0.08053936906054182 -2.0252344466003135e-17)
(-0.029092253601268093 -0.0667950287303608 -1.573437615478074e-17)
(-0.01086957364999742 -0.04439258499663224 -1.0425572133257865e-17)
(-0.003045998633009835 -0.01553852908848894 -4.145472626164679e-18)
(-0.003774236530048924 0.022566413938333047 1.24044596149885e-18)
(-0.012719597608960995 0.06038542197153575 1.347193336651923e-18)
(-0.03318010914649273 0.087688463079522 9.438078758958865e-18)
(-0.05842348832329971 0.10329798928621413 1.389486332892828e-17)
(-0.0843634791036904 0.10785920719345544 1.4757640650464742e-17)
(-0.10924587467077486 0.10260663940427599 1.0894928907001482e-17)
(-0.13127247189816726 0.08911775229375335 5.320187457856294e-18)
(-0.1491110440100109 0.06912436376151422 8.252990780472866e-19)
(-0.16190619479415722 0.04435454878765421 -2.5339980627173705e-18)
(-0.16906757616511797 0.01650934371296378 -4.72715206079162e-18)
(-0.17021192966403315 -0.012691969634969448 -5.631555877218104e-18)
(-0.16515128828577538 -0.04144232050247052 -6.24049126845211e-18)
(-0.15392025158883138 -0.06778269416671164 -8.766690222078917e-18)
(-0.13684664800219656 -0.08958085540453223 -8.880323923727399e-18)
(-0.11467972517534783 -0.10458145596048887 -4.8632548440525896e-18)
(-0.08885127076756202 -0.11057403526739445 -9.86641974028073e-18)
(-0.061432204030316295 -0.10573677149975969 -9.331026181034042e-18)
(-0.034632828042744986 -0.08899683938531505 -3.0792041859308955e-18)
(-0.013072550976947303 -0.06026561136357428 -4.475610356068986e-18)
(-0.0037162466204222642 -0.021749253414479384 -1.9541982476016603e-18)
(-0.004430800185017674 0.029811229520769294 1.5142135188445284e-18)
(-0.014721150593124711 0.07809723316545382 2.301317447058497e-18)
(-0.03801624455191543 0.11178474350641035 1.080463362772828e-17)
(-0.06623601626796874 0.1301316590926794 1.5676807563718808e-17)
(-0.09464200534985474 0.1345512251059336 1.7528915082258276e-17)
(-0.12141458661028817 0.12702567509456553 1.468095092556217e-17)
(-0.14478132919610803 0.10976130076707101 8.900395449578307e-18)
(-0.16354159508401594 0.08497310148493045 3.998411760117098e-18)
(-0.17701443636533545 0.05472632397383714 5.00111531288868e-19)
(-0.18474390673986923 0.02094802648937725 -1.5239709519107671e-18)
(-0.18640042333342874 -0.014476822091645811 -2.113388168456839e-18)
(-0.1817474469293187 -0.0495772034657819 -2.0980194367445416e-18)
(-0.17066396430989705 -0.08216778592536453 -3.730319923925439e-18)
(-0.1532352882368672 -0.10976466639754805 -3.043812400595449e-18)
(-0.12993790827992727 -0.12958442863840722 1.2247267275627998e-18)
(-0.10202054622426004 -0.13869626302321234 -3.895819386860339e-18)
(-0.07154410653121661 -0.1344242962553355 -3.749896444893355e-18)
(-0.040893808789256726 -0.11482834107259077 1.6973564480296802e-18)
(-0.015646883868911443 -0.07907408188525684 -1.6104387898651635e-18)
(-0.004534903171668067 -0.029206938076623355 -9.656607437118396e-19)
(-0.005217750064497326 0.038192654905502894 3.1916432618853645e-18)
(-0.016969668801110498 0.09829465480528182 1.1209064570394252e-17)
(-0.043203190616415005 0.13875040934848165 1.4374754998691006e-17)
(-0.07418260269153125 0.15952276807199514 1.9351946690988666e-17)
(-0.10447854223090128 0.16318123256949094 2.5040826234330386e-17)
(-0.13233648106700457 0.15274143326117853 2.2231168578125364e-17)
(-0.15615789665034863 0.13120858175074315 1.2463889076590693e-17)
(-0.17502262267823523 0.10134935783065606 6.5005928768107926e-18)
(-0.18855465005146488 0.06555092126050724 2.652540602942598e-18)
(-0.19652994060014609 0.025892641701840836 6.977234480883187e-19)
(-0.1987324955821406 -0.015685485939911276 1.1483909260607275e-18)
(-0.19489455474880094 -0.05717645378236819 4.258387869971408e-18)
(-0.18470447192075803 -0.09629053494037473 -5.419325580249928e-19)
(-0.1679063145125189 -0.13027563781368307 -1.3166876760648515e-18)
(-0.1445372361627127 -0.15582218889025146 -9.897728472282994e-19)
(-0.11545227516625028 -0.16915123461333822 -3.301100608877976e-18)
(-0.08248593252378711 -0.16645246727528754 -3.0352026754500946e-18)
(-0.04802652784905119 -0.14450182515894208 2.0431478903653125e-19)
(-0.018722866654894827 -0.10121190529761491 -1.8078254345875513e-18)
(-0.0055785520120803685 -0.0381502254482971 -1.0808990746127698e-18)
(-0.00623113770326053 0.04788757911949593 2.7328578039212546e-18)
(-0.019599879681857935 0.12117142606038689 5.9663385621276266e-18)
(-0.0488598569715813 0.1684708385703732 1.4681329544802137e-17)
(-0.08214968223236163 0.19093467638563272 1.9513039079708095e-17)
(-0.1133465772896575 0.19287028916285598 2.2717594594143363e-17)
(-0.14099791573078105 0.17869442495840085 2.0126848548850253e-17)
(-0.16390171912249762 0.15239966920675893 1.3481376736651463e-17)
(-0.1816196393505466 0.11735587763036714 7.852689157853989e-18)
(-0.19424542746574205 0.07622302260613044 3.641564658213197e-18)
(-0.2019065251007665 0.031120572399909296 1.0317521885717946e-18)
(-0.2045798683818048 -0.016108869630060276 1.6327646460654279e-18)
(-0.20200518764515274 -0.06360027751382678 2.0088905065185662e-18)
(-0.19366627174155537 -0.10914477101963835 -3.722241492575543e-19)
(-0.1788756315321184 -0.14988248936211576 -1.2044364493372274e-18)
(-0.157039251750719 -0.18205720395087946 -2.4183674815801647e-18)
(-0.1283333803644293 -0.20095904091597427 -6.650183166537032e-18)
(-0.09401994134460653 -0.20133180415114835 -6.0249845163331576e-18)
(-0.056142181079727176 -0.17810901394517922 3.705904736095282e-18)
(-0.02246505757629413 -0.12715091054906213 -4.50286969846957e-18)
(-0.006966332804046005 -0.048911899223553386 -2.380797536042327e-18)
(-0.007669543145917725 0.05919573823600467 4.209597037143385e-18)
(-0.022858055141594134 0.14698790401541623 1.1955079149229839e-17)
(-0.05515638235393903 0.20065274027788138 1.7666490922447322e-17)
(-0.08988947569299938 0.22341905604481632 1.9526825073902094e-17)
(-0.1203608035246176 0.22220008170356165 2.5213180464659138e-17)
(-0.1458326945373058 0.20325856107900614 2.2607435386266043e-17)
(-0.1658138732824058 0.1717524359155157 1.523928989752239e-17)
(-0.18059845669595567 0.13165985090487653 9.081240730526505e-18)
(-0.19093434616284902 0.08581141443703864 3.921904836244156e-18)
(-0.19742444657458788 0.036209906658508914 -1.5354313474022136e-18)
(-0.2003264887568051 -0.015590364604551623 2.8242443838909374e-18)
(-0.1994493763594237 -0.06808829496813822 4.443373118971559e-18)
(-0.19409800467566396 -0.11940572392765088 6.229332067831161e-19)
(-0.18310600941925065 -0.16683235205582847 -1.5353813361274448e-18)
(-0.16507058389330026 -0.20637063344526607 -5.327201385789573e-18)
(-0.13915273031340622 -0.23241257779295646 -1.670661986035764e-17)
(-0.10554234861266366 -0.23797117606182844 -1.812422043614232e-17)
(-0.06529749720469924 -0.2154351322490001 -9.24893699307714e-18)
(-0.02713146660191915 -0.1573910759522951 -1.5633971288120428e-17)
(-0.008924964231413667 -0.06195227200273071 -4.978402378247627e-18)
(-0.009941148674486769 0.07263954160407994 6.299476673968663e-18)
(-0.027187000444712645 0.17606467909726056 2.0519093556603805e-17)
(-0.062296336857523706 0.23466899759546878 2.455220125394968e-17)
(-0.09685377110665062 0.25540408292526384 3.307133659289083e-17)
(-0.1240120790521543 0.24901338890463304 3.683935158050402e-17)
(-0.14443166953555375 0.22408957430005524 3.2452192409188054e-17)
(-0.15873564549273458 0.18706588285129094 1.9463248074487323e-17)
(-0.16822229285451556 0.14243523632681818 1.1102828003433544e-17)
(-0.1744579201925113 0.09301626324537927 5.940693097191364e-18)
(-0.1786110146441876 0.040491404950293894 3.790505932629845e-18)
(-0.18128990256759653 -0.014087844377527222 6.715910900947676e-18)
(-0.1824485983551996 -0.06982640772000209 1.4504725518191618e-17)
(-0.18129542738552737 -0.12547108501481075 4.7611664624479844e-18)
(-0.17623059662837565 -0.17881799385032537 5.64877220240161e-19)
(-0.16495715889491544 -0.22601125469998368 -2.7957661784544575e-18)
(-0.1453106316557067 -0.2608042342032687 -7.052114759592618e-18)
(-0.11578051943563648 -0.274340246356679 -8.557410607175691e-18)
(-0.07537964250100927 -0.25567845127486655 -7.07803559563734e-18)
(-0.033133005085032176 -0.1923962875600504 -7.255928288995621e-18)
(-0.011916044694676905 -0.07795026510087819 -2.9391355550303667e-18)
(-0.013786689640692806 0.08925358097561338 6.901578363996353e-18)
(-0.03325004075817059 0.20872760236363558 2.245886711844108e-17)
(-0.07028294065556628 0.26914314188092386 2.755951872422704e-17)
(-0.10173802837428061 0.2842381053324537 3.525428507345012e-17)
(-0.1216356168758131 0.27006312701605434 4.130819750030836e-17)
(-0.13304323878197066 0.23791003047418616 3.7102242211940715e-17)
(-0.13815201699722515 0.19542437276532063 2.2179158949854765e-17)
(-0.13949250742651426 0.14734046057305694 1.1419381253245794e-17)
(-0.1395160772076925 0.09616701080217331 5.5517764578942055e-18)
(-0.13994727749585734 0.043022247575901215 3.782450180735366e-18)
(-0.14175055290791397 -0.011749492345511368 3.740341203979588e-18)
(-0.14509029457775524 -0.06807015611065939 7.456159466938136e-18)
(-0.1492226198344987 -0.12559121719699307 5.236536031003061e-18)
(-0.1523079384196388 -0.18302916408989775 2.4386201982406967e-18)
(-0.15127948612870742 -0.237248739609019 -2.0043490227783975e-19)
(-0.14251360244945535 -0.28198634996381333 -2.598800002057782e-18)
(-0.1221829103690238 -0.30677623306381624 -3.872549352410534e-18)
(-0.08575473337495143 -0.2967923606222569 -3.887377660463497e-18)
(-0.04103597168691835 -0.2324879841795121 -3.458316292350709e-18)
(-0.016739819344699935 -0.09820878744894819 -1.4334303144934282e-18)
(-0.020290686947794477 0.11116257634046234 6.1456679940918376e-18)
(-0.04195228952936609 0.24499704181067974 1.8443544455655882e-17)
(-0.07833410542732686 0.3009684310672217 2.799116252271285e-17)
(-0.10143576573560088 0.30524947138950814 3.791819234352941e-17)
(-0.10833462952395909 0.28043144589195207 4.003427371840789e-17)
(-0.10568050376062425 0.24029323221255822 3.8983956433919903e-17)
(-0.0975637839326778 0.19322581499288521 2.32103688987621e-17)
(-0.08780096701552746 0.1436592967618919 7.661773461426423e-18)
(-0.07957035426143098 0.0933702611057544 7.833937304871754e-19)
(-0.07494929757563858 0.042662402834946656 1.0553210107151514e-18)
(-0.07513699363230261 -0.0089614290919902 -5.0148106680135916e-18)
(-0.0805200610582007 -0.06233866151011737 5.119946926919681e-18)
(-0.09058733423482196 -0.11819036558505118 5.9326924812337685e-18)
(-0.10363209274550098 -0.1765095802212668 4.041947575946873e-18)
(-0.11628206969082992 -0.23556685117538345 1.8099589430572045e-18)
(-0.12375919454611183 -0.2901427387380674 -6.768243205766129e-20)
(-0.11975540114493967 -0.3292084611627234 -1.23811862272871e-18)
(-0.09459465173672511 -0.33433446290174795 -1.6527965774181954e-18)
(-0.0516476646986215 -0.2770610422935856 -1.4961729244743185e-18)
(-0.024573513058405553 -0.1250475673007164 -6.236699345596871e-19)
(-0.030658136028191098 0.14082937849644905 5.2512901330544165e-18)
(-0.05398669871762671 0.28316426632229413 1.670828862145819e-17)
(-0.08329470766213096 0.3248931707331221 2.6665479847710973e-17)
(-0.0888245623077735 0.31229254687752706 3.75610255823414e-17)
(-0.0749525705418793 0.2744974918627855 4.01563339041968e-17)
(-0.05265841241602593 0.22681498434430597 4.0730817164547653e-17)
(-0.027646707802336395 0.1773438368465642 2.585344190961958e-17)
(-0.004609265864295062 0.12932559437267113 1.3418149315885176e-17)
(0.01309255550594426 0.08331288687584794 5.8876670272788584e-18)
(0.023504071507031866 0.03860652984703064 3.600639005944015e-18)
(0.025487226436814517 -0.006132217967999611 3.292324948765789e-18)
(0.018516256688020993 -0.0525651946201628 8.738125881189854e-18)
(0.0027016405635621825 -0.10242409132390617 7.599349289289899e-18)
(-0.02087735200793012 -0.15711276778251881 5.302951696921704e-18)
(-0.04939612040458668 -0.21688838922923703 3.1369564735523284e-18)
(-0.07796542141502924 -0.2790069156396873 1.4189319678009656e-18)
(-0.09878023922104395 -0.33388752157399043 2.695219644939175e-19)
(-0.09646136569932935 -0.36079181720978865 -3.2311414258713843e-19)
(-0.06477515094883897 -0.32239864580139116 -4.613086997369221e-19)
(-0.03675646621727909 -0.16028982255353244 -2.131148456964111e-19)
(-0.04262449208230569 0.18132180768371353 2.9545283435731144e-18)
(-0.06406971927871592 0.3172361719052921 1.1170777245708589e-17)
(-0.07335068816511092 0.3314212719996171 2.2578014201208342e-17)
(-0.048333817021699 0.2975235590168361 3.465083123720866e-17)
(-0.005535702666022821 0.24646142138817698 4.1436662325077205e-17)
(0.04066590314937209 0.19374650282165096 4.089145190741365e-17)
(0.08406635040321296 0.14584881263279517 2.6682149293042407e-17)
(0.12023119701071769 0.10355813507837089 1.4656072454373708e-17)
(0.14667069295174276 0.0657208647122142 5.310476832701985e-18)
(0.16227379217512264 0.030632197688208972 2.7548519430496046e-18)
(0.16639001600014602 -0.003672203978579337 3.228482355667687e-18)
(0.15853193838428367 -0.039334676134132066 1.4107630939663372e-17)
(0.1383288785706879 -0.07870366659791822 8.31869209980444e-18)
(0.10578192467192522 -0.12429367069839803 5.6006144273031295e-18)
(0.062040059670560664 -0.17848175293751425 3.655038047862602e-18)
(0.010454091043184108 -0.24235814601616743 2.1165514716703942e-18)
(-0.04157534620111467 -0.3104870531173543 1.0210021530025886e-18)
(-0.07567829709971942 -0.3630502804110411 3.584472679187505e-19)
(-0.07205045983844055 -0.36073132747722225 4.7856982686301805e-20)
(-0.04918216596981115 -0.208484688884836 -1.6766339073710302e-20)
(-0.03545530784572626 0.2475548519060862 -2.3898090476965056e-18)
(-0.05164420342788476 0.3344052873729937 4.561920635285695e-18)
(-0.01781594500906094 0.2940816819301041 1.5672503294341948e-17)
(0.051503885188208316 0.23950339575383175 2.6907426333400042e-17)
(0.1261339693047164 0.1831855828414998 3.340836623538693e-17)
(0.1949142930636004 0.1343085285768201 3.6733621160121536e-17)
(0.25293855617908095 0.09590740059314035 2.438941631363679e-17)
(0.2975733694137821 0.06554289687324265 1.2045057792795734e-17)
(0.3286543408496796 0.040402551064353684 -3.582555702060914e-18)
(0.3467114678800743 0.018287282968448823 -2.0964896007341508e-18)
(0.35197336888310665 -0.002743744942522665 -7.498991655948207e-18)
(0.3441960623718446 -0.024598220652320292 3.1059742550978993e-18)
(0.3225973441377112 -0.04941930992607293 5.304610263343222e-18)
(0.28586706132145917 -0.07987839732393458 4.6972262666009405e-18)
(0.23240697330782803 -0.11959236076082733 3.414602318533672e-18)
(0.1624081985646285 -0.17327476352410567 2.1714987399904458e-18)
(0.08081893846766687 -0.2418015601409557 1.2173511444102661e-18)
(-0.0014690558772161742 -0.3153509964087807 5.915312587015543e-19)
(-0.05214758642390352 -0.3751849108850966 2.3707845183095907e-19)
(-0.036025262138132584 -0.28450807568853453 5.852465666783356e-20)
(0.04415089285782615 0.29485119084369055 -2.5315133946295084e-18)
(0.02178728117631331 0.3009444703716811 -8.449805587616872e-18)
(0.13839014494117394 0.20097364442960247 6.506411940674215e-18)
(0.26708375728881156 0.13857894668355544 1.773600905120025e-17)
(0.36362790503584747 0.0936962988544557 2.7576422459883187e-17)
(0.4390356692519193 0.06156603379475528 2.971866659924788e-17)
(0.49656313012678605 0.04047999545432524 1.9279234804157017e-17)
(0.5372348040191745 0.026127597599276856 1.0254428778785377e-17)
(0.5639644553446203 0.015360507628439534 2.83943028565425e-18)
(0.5790322906700781 0.0064358098660073065 5.543681920443712e-19)
(0.5834339274057699 -0.0018171835616558752 -1.4698232965898775e-19)
(0.5772193175749981 -0.010406497309861111 3.728950658662903e-18)
(0.5595438582992085 -0.0204960700252401 4.421463547069546e-18)
(0.5283256149402257 -0.03380249962412332 3.652282166497018e-18)
(0.47949205799950223 -0.053357472301480864 2.6064322981247683e-18)
(0.4092945702413722 -0.08474846249379793 1.6794261162226639e-18)
(0.3149798000357479 -0.1347024819283815 9.80820838821013e-19)
(0.17769381319463984 -0.20875636037944992 5.105896653021657e-19)
(0.03387720042943528 -0.3174848423747467 2.250060602630524e-19)
(0.05702345630202961 -0.31699583380727364 6.198677096967116e-20)
(0.3501746768795655 0.05475669911890467 -1.819214797562107e-18)
(0.3809370463011086 0.15579108879787945 -9.007461210623071e-18)
(0.5431606832442147 0.1275259080094399 6.206073600760805e-19)
(0.6810189124418561 0.08631737941504611 9.373583757320998e-18)
(0.7515394354393947 0.052001854273302194 1.155263757477191e-17)
(0.7929374189416437 0.03079660082174543 1.6643641639495328e-17)
(0.8202389856197166 0.019423753722615397 8.879165153752807e-18)
(0.8374181305850881 0.013181545761793562 4.420201773485334e-18)
(0.847772596623675 0.009395653588223363 1.8489207412945302e-18)
(0.8531968527875868 0.006712241885978151 9.22909255214439e-19)
(0.8543248941840872 0.004391345866917671 1.7877671525416632e-18)
(0.8511949184517225 0.0019623747873737975 8.450359103430944e-18)
(0.8433829160505535 -0.0010823294011692243 3.904680726311248e-18)
(0.8296527462764205 -0.005691514781917581 1.8617187472224292e-18)
(0.8068798641376854 -0.013698616238236554 1.0722955390584358e-18)
(0.7707301215619738 -0.02913860395805273 6.566085098711422e-19)
(0.7118776477489163 -0.06003168254566135 3.8474780167519233e-19)
(0.5838560242786268 -0.10637726710610737 2.0439452896209234e-19)
(0.3983151219108223 -0.14527255887146934 9.224091289087721e-20)
(0.3949221147523392 -0.06830349776064874 2.6347560974457596e-20)
)
;

boundaryField
{
    movingWall
    {
        type            fixedValue;
        value           uniform (1.0 0.0 0.0);
    }
    fixedWalls
    {
        type            noSlip;
    }
    frontAndBack
    {
        type            empty;
    }
}

// ************************************************************************* //
