/*--------------------------------*- C++ -*----------------------------------*\
| =========                 |                                                 |
| \      /  F ield         | OpenFOAM: The Open Source CFD Toolbox           |
|  \    /   O peration     | Version:  5.x                                   |
|   \  /    A nd           | Web:      www.OpenFOAM.org                      |
|    \/     M anipulation  |                                                 |
\*---------------------------------------------------------------------------*/
FoamFile
{
    version     2.0;
    format      ascii;
    class       volScalarField;
    location    "9.049999999999994";
    object      p;
}
// * * * * * * * * * * * * * * * * * * * * * * * * * * * * * * * * * * * * * //

dimensions      [1 -1 -2 0 0 0 0];

internalField   nonuniform List<scalar> 
400
(
0.0
-9.6510147079735
-20.338944862911518
-27.55769164473976
-30.41857172671198
-28.39221194868062
-21.53192252749168
-10.448341248526853
3.93100019289882
20.45146457096094
37.7906736903129
54.53458533575383
69.26109012396256
80.65673590509618
87.66143071412394
89.67068262483428
86.88543727855338
80.44849581076328
73.0306234666581
70.55077206680733
71.92771066441502
68.89318619125994
64.34562363632742
61.13280329166591
60.246503652886645
62.40565521714312
67.7448507960524
75.94624781386817
86.44167657451521
98.45167552608964
111.0496886961534
123.23399013171272
134.00584526439624
142.47855264301745
147.98308472907024
150.11505611028767
149.02218376040182
145.64251763702413
139.58648193793263
130.3874129069142
133.41774162649534
123.61106952217402
118.216151033337
115.40363440457064
114.54200108312008
116.53368645181239
121.3651623200528
128.67514013475952
137.98812115101214
148.64486641845767
159.850975803707
170.7380530049735
180.42281649608998
188.10761101350326
193.1706249211943
195.12411184003085
193.93451515349057
190.68731954356218
184.490053081051
173.0282642165924
189.0741760028285
172.44561026314787
165.319760141244
162.06842399355645
160.72673691458306
162.50128231118794
167.17802718471094
174.2698082694515
183.31453677809338
193.68657422427
204.63257954150637
215.32630036116697
224.90548380529026
232.563398119963
237.63702053447054
239.49439041141778
237.93421763302015
234.23399846420014
226.85519078272287
211.53722971344885
244.15643586819152
222.79463863591414
214.41657875429382
210.8508668993008
209.19548598706774
210.92245829120716
215.65703229018854
222.8051426218669
231.9147300716606
242.38527719830006
253.49410150526174
264.43821772779404
274.35196780535796
282.3954583120926
287.83454762170675
289.84522436670807
288.0324297512743
283.88876343092835
274.79141074319415
253.90121032036757
295.44669723087566
269.1039862910504
259.1615190745666
255.18885825631395
253.3194079811988
255.25236819308185
260.46035980686173
268.2268351830184
278.0824167964345
289.42316408019286
301.52489897405115
313.56903411784884
324.640236421767
333.81495355490233
340.23210717621714
342.813231862558
340.9331412791187
336.3393636663498
325.425454957744
299.048849352311
341.67655824618805
310.1837716085467
298.6697034484741
294.4214649154957
292.5912291784145
295.1147799156118
301.30435668363157
310.30465268080644
321.61233638656256
334.603420318819
348.53340102288524
362.54730237831114
375.65456361241274
386.8135521958984
394.9892726402034
398.7854184554234
397.2958554402504
392.51028194159136
379.76049763879433
347.6134007255399
382.15023849378485
345.3850071100027
332.50586466370413
328.3423544344787
326.99772997985923
330.6455438614504
338.41597775573274
349.3026178637509
362.76731630360536
378.16940163917485
394.7497589652418
411.61930363753766
427.70639495481237
441.83352545912095
452.7524211170313
458.6672853297913
458.3048591273444
453.8746749472263
439.39297591743923
400.7520130919984
415.65940720170465
373.20884926062774
359.2323298198265
355.70306103141127
355.47540148755854
360.95262217623514
371.0407383951167
384.5622576625812
400.9524477314909
419.5732846824875
439.67702074584787
460.36550684948105
480.5013305358191
498.772069949854
513.686712023246
522.9496690243179
524.7938903229291
521.6213750958933
505.7315620053975
459.6213551610256
440.7111488493052
391.88409939022813
377.2701469042814
375.2381284963708
377.03084501539394
385.2798432828746
398.6008440107091
415.61738069365464
435.7607980406289
458.435333342591
482.95640226385814
508.47297989254184
533.8298102867591
557.6116934621031
578.0806541406677
592.3310237694958
597.9335290305081
597.4466934212306
580.8026741616819
525.8893083955891
455.46019122900697
399.1615933109084
384.75664653661374
385.6106159659298
390.7513221513937
403.06338567121463
420.7732985170896
442.2761381741948
467.0477804907039
494.60320105134997
524.4070003239591
555.7532160564912
587.5620286764287
618.3959838727269
646.3188315524158
667.7146716666796
679.2718747915218
683.6806323175998
667.5116344195992
601.9695191193794
457.4075537166189
391.88477632085136
379.30700939489344
385.3119230953123
395.7935632650514
413.9887859782027
437.58048430815757
464.72023193612654
495.0264974136945
528.2343502522368
564.0854698799134
602.1678973886085
641.6283685047742
681.1575772478703
718.7669618265567
750.0879325915239
770.6623235265814
783.3998250984087
770.0911670417603
691.4296166875788
442.649374204051
365.4115790082019
358.09459876837536
373.07020180921364
391.88388584383483
418.49490741080194
449.8507790792971
483.90722586060923
520.6121776564734
560.0864924436411
602.5227562999498
648.0044976473034
696.1206875095655
745.9217792136955
795.6437330622449
840.2703976840023
874.0012185869944
900.4490354969803
894.8256779565072
799.9505997442877
404.61742508661075
312.9028482605964
317.6947882996216
347.90142261408374
379.49689305071286
417.9610369227761
459.36264465922284
501.6854754785259
545.5173444211289
591.5994487380805
640.802430423809
693.962161865982
751.4080583930948
812.878727829541
877.2808559573583
939.3860378497088
991.9504907359739
1039.9295324080654
1050.371470622604
936.2696575954845
331.06920623714115
224.58349429216764
253.39617697143046
308.01207315125856
359.2370246688329
414.5140816936164
468.7795871273118
520.7446223291712
572.1879531477118
624.8050765000806
680.4407164028187
740.9905334753809
807.9006693392578
882.052993374739
963.7741228361162
1048.7877107797447
1128.3603583967335
1208.7192781810647
1249.5351322034146
1117.280585996754
188.05818486232303
85.54901777275322
165.72226391461328
258.58532435301146
338.3999133155237
415.93291217540434
485.1238537937227
546.9640369289273
605.3322914786947
663.2702850733924
723.8597172370972
790.2693811172591
865.3402518070292
951.5407345301853
1051.4311307238681
1163.5034982867312
1279.0262017915902
1408.0464659688662
1513.1546974320397
1389.8878100975649
-92.65514389335281
-119.45434238159399
64.72483609093841
215.3841206255917
332.1676506550828
434.00038810123664
517.1113558810563
586.7641447361977
649.5332356878066
710.0816030316504
772.8475887721382
842.2727533929467
922.7367654641848
1018.7468365473217
1135.3735705150489
1275.6065762286853
1436.2459243586525
1633.0911152605922
1849.7415458856979
1823.1472024430702
-561.8652392715817
-374.16486213197993
-77.86133934131584
142.82228627016906
319.6338378134683
455.2849020976796
554.5448433834008
632.2900039601171
698.401376316606
759.6882954243895
822.4885562655945
892.743065293951
976.8378663902606
1082.3731936113525
1217.990339135955
1396.9548679957431
1634.1075131272908
1917.6356294134055
2231.9905856152914
2455.1705487294103
-1611.2962517878925
-636.2972129034943
-169.59770920105427
105.67217280044478
357.95681729979424
526.6984075002783
630.6095007525487
705.7287362997399
766.4449365254691
820.7792135372163
876.2820894381709
939.4952447537246
1017.6846388964145
1120.5467005688029
1260.7344250424037
1469.604501018565
1795.290222949775
2178.1457896941683
2693.1354323358287
3797.40436496277
-4300.799401015637
-803.6708691434387
323.4227271326979
560.4472817590989
729.7564511467541
816.5746434772022
850.3596988144039
874.8080249811381
898.9150697933501
924.1347778175025
953.5205877462481
990.0307935968846
1037.0049365529117
1098.889897014965
1182.1132158471491
1315.288603796851
1557.4313656913132
1922.4370147810212
3086.7703427858605
6778.612430522318
)
;

boundaryField
{
    movingWall
    {
        type            zeroGradient;
    }
    fixedWalls
    {
        type            zeroGradient;
    }
    frontAndBack
    {
        type            empty;
    }
}

// ************************************************************************* //
