/*--------------------------------*- C++ -*----------------------------------*\
| =========                 |                                                 |
| \      /  F ield         | OpenFOAM: The Open Source CFD Toolbox           |
|  \    /   O peration     | Version:  5.x                                   |
|   \  /    A nd           | Web:      www.OpenFOAM.org                      |
|    \/     M anipulation  |                                                 |
\*---------------------------------------------------------------------------*/
FoamFile
{
    version     2.0;
    format      ascii;
    class       volScalarField;
    location    "9.049999999999994";
    object      T;
}
// * * * * * * * * * * * * * * * * * * * * * * * * * * * * * * * * * * * * * //

dimensions      [0 0 0 1 0 0 0];

internalField   nonuniform List<scalar> 
400
(
299.8037584417329
299.72300615229375
299.89644530278315
300.10595705263324
300.27541978409977
300.42163766462255
300.5502394422899
300.6617290940124
300.75816146208587
300.83994126414905
300.90524250837495
300.9488117004529
300.9628670415106
300.93978688205243
300.86684292699823
300.73274771323
300.53356261163384
300.2750677504846
299.94312085869274
299.8273274536533
301.2515444700316
302.90502543973776
304.09632627593027
305.0015472435398
305.6445223050349
306.09111824484893
306.3734918786611
306.5198736661631
306.56020409766984
306.5188596154459
306.41617287325874
306.2607488530433
306.0507463245816
305.7837548948102
305.4647439427063
305.08168392515194
304.6053926760426
304.03512408304056
303.1641676129867
301.1965765178953
300.95983244981505
302.06145544633523
303.50661991097957
304.66936719123754
305.5500291172184
306.2493559108366
306.77686902540177
307.15570691669024
307.4144858225254
307.57172957551734
307.63915063576206
307.6104743327535
307.4613018862454
307.16991369958316
306.72118538341664
306.08952273631155
305.23840379938935
304.24124322974325
303.04711839268543
300.8735058519108
300.9189628544255
301.7527262449163
303.5536125128065
305.00566552497344
306.1256007143388
307.0672317831589
307.81958250350056
308.402962836006
308.845558943181
309.1600791183473
309.3512715114102
309.40181099191574
309.2717954391743
308.9283134524658
308.34922678694534
307.50426267519896
306.3549169197511
305.0349529441465
303.5573540821812
300.88861408610603
301.1012098656345
301.9643216026871
304.1709777076073
305.9421672272358
307.317222385603
308.49989766828827
309.46610116128437
310.2361104134797
310.8387169873814
311.28151750000364
311.56179237328416
311.6552052055731
311.5171555834497
311.1093348867487
310.406055291474
309.3701607181099
307.9530678279159
306.3400433514527
304.55750064491326
301.12186031284074
301.2598281466078
302.1256116952038
304.71151283513746
306.7913042113476
308.41454799875896
309.8321294441477
311.00910347085374
311.96520011302243
312.7291938551523
313.30397171978206
313.6816101108106
313.8328433931673
313.7054500620903
313.25513002540146
312.45108320462435
311.245315494999
309.57371036696026
307.6673636401172
305.56074255059787
301.3445055287662
301.4268541331726
302.3128375148511
305.2904869843198
307.680487205897
309.54904636465676
311.1974625932278
312.581433256129
313.7204598648132
314.64330880219956
315.34841195697874
315.8229962375965
316.03496760183776
315.92699053094503
315.4497404846309
314.56634883684575
313.21438893065215
311.30894580759707
309.1188971939799
306.66519814192304
301.59060480900933
301.6155052010724
302.53830994274983
305.927798469498
308.63172828216625
310.74176062956576
312.6145790472781
314.19759261123096
315.5110960544861
316.5846153140457
317.4127695907573
317.97832545408784
318.2491729210914
318.1668424263648
317.6777554612524
316.7375163251464
315.26526647804934
313.150481859895
310.69921838450745
307.89872548108286
301.8635923012214
301.8165501557467
302.7609780075206
306.5827391410027
309.60081319751504
311.9414088831672
314.0254372475038
315.79254390565416
317.26533705290666
318.4759035574762
319.41662554122695
320.0674714095365
320.398916484821
320.35384524633446
319.87369258567986
318.90387403824474
317.34035773820887
315.0436009376243
312.36783466508695
309.25103017352114
302.14787212997317
302.02916552232307
302.956335832961
307.23989257842925
310.5691860406821
313.12000109203734
315.39328633303546
317.32081062406735
318.92995343595123
320.25868608958075
321.2996582702864
322.03202836466977
322.4306547169666
322.44195547629073
321.9996440922436
321.0338858551354
319.40989723102643
316.95546381883656
314.1018919195273
310.7334619721363
302.43337807890356
302.25570821853756
303.09532976940574
307.88791463349247
311.52017282845867
314.2471071351173
316.67591581892736
318.7288344238763
320.4418642324548
321.8641149804459
322.9921432539016
323.80693614117286
324.2885273017644
324.3885496217607
324.0275419148911
323.11148585056804
321.4607799832368
318.85947892171333
315.86851044134175
312.3542417625501
302.70306138812543
302.50269611057166
303.1367848791439
308.51380461219134
312.4269828099431
315.2766590058534
317.8143469048708
319.94521403751054
321.7194084156208
323.20457998496903
324.40615943283285
325.31123509909116
325.9052287622044
326.1459791944926
325.933010360336
325.1351659561014
323.50350879888424
320.7442275268906
317.6190889503139
314.10711127432904
302.92668779520716
302.7731865241448
303.03141724625414
309.12842134250087
313.2755214136764
316.1677941822464
318.7536491482181
320.9007453339699
322.68086506185017
324.18956970100544
325.4470439800179
326.4534191943814
327.20108864096073
327.6548245263116
327.6845837029232
327.10635966016474
325.5657223423242
322.6149332623736
319.2807120108257
315.9544109340895
303.0840947482101
303.0475110309204
302.7520125593334
309.8126793917909
314.1070642799498
316.9185821303648
319.46462068353406
321.54387520403566
323.2593067051918
324.74107901066395
326.0274847402448
327.1417349039902
328.09041837402646
328.8468889752237
329.24641340993014
329.0373557546461
327.7203744298563
324.5548373406001
320.7874021032148
317.7259772258124
303.1663769714093
303.4101789473959
302.4374328458026
310.59409762012734
314.80214122152677
317.3917030856026
319.81887842515886
321.75676265755925
323.35703724246446
324.78042588413535
326.0757671724678
327.303156723544
328.5029629511389
329.6596072823049
330.5856585142356
330.9656967524894
330.14939406994563
326.88575019219655
322.25010206734737
319.0205986025141
303.1341918933761
303.8099002253368
302.5839632788591
311.6593894555098
315.2634255635275
317.5446817294209
319.8569240716387
321.62497305916327
323.10304940721164
324.476290081538
325.7673197841176
327.0818691864293
328.5151445998388
330.0773946942476
331.6037776943835
332.7550791450109
332.81543197489725
329.8460143646356
323.91157351303787
319.468087193708
303.7566977630693
302.56667151288826
304.34263015070974
314.9074215373189
317.3244036369764
318.89908761506695
320.75021813243154
322.09607975909273
323.3077441653042
324.53744421666374
325.79877467554854
327.15776042920226
328.7023515588522
330.45900734205435
332.365109484654
334.19592394741795
335.28190065951804
333.2969820216433
326.13472558339896
318.1996932094521
306.9649388722797
303.2318676319555
311.93836965744026
319.0404413717459
319.2244990611812
319.91084239343706
320.9358346198829
322.0089962990693
323.29356542730727
324.71924736826503
326.2358436942102
327.8755094774311
329.70531173342965
331.7892805701884
334.2151632612618
336.8349018534489
339.04232498995407
339.8876466375882
332.85920836250983
312.7505480146567
308.58332427748167
320.51019368023606
333.3371404732696
314.78976565148736
311.2325112374067
314.50516638337774
317.74680613064174
320.690216573579
323.52667989743946
326.1105691560839
328.4606096096412
330.7054162184414
332.9933087598059
335.51112375680975
338.58171174528917
342.31990293052405
346.5873603255676
352.8176938993816
349.67644174841945
307.7446536371712
308.15532512945475
287.7631963454698
351.9057498525501
344.8344824629217
341.32096931321865
342.61362244600696
343.1833882534205
343.33503825168407
343.5730446559829
343.8518039117543
344.1363890809187
344.42574687312595
344.6750230621692
344.87123895910867
345.0367623576029
345.0069501984307
344.57476939940057
345.84602749031757
343.3479884071185
314.4759297326459
365.6721055250413
)
;

boundaryField
{
    movingWall
    {
        type            fixedValue;
        value           uniform 350.0;
    }
    fixedWalls
    {
        type            fixedValue;
        value           uniform 300.0;
    }
    frontAndBack
    {
        type            empty;
    }
}

// ************************************************************************* //
