/*--------------------------------*- C++ -*----------------------------------*\
| =========                 |                                                 |
| \      /  F ield         | OpenFOAM: The Open Source CFD Toolbox           |
|  \    /   O peration     | Version:  5.x                                   |
|   \  /    A nd           | Web:      www.OpenFOAM.org                      |
|    \/     M anipulation  |                                                 |
\*---------------------------------------------------------------------------*/
FoamFile
{
    version     2.0;
    format      ascii;
    class       volVectorField;
    location    "9.049999999999994";
    object      U;
}
// * * * * * * * * * * * * * * * * * * * * * * * * * * * * * * * * * * * * * //

dimensions      [0 1 -1 0 0 0 0];

internalField   nonuniform List<vector> 
400
(
(0.00029087694245355636 0.0027900650226422613 2.9642903719296534e-20)
(0.00046181819050089215 0.0051499650302712 8.882048168472194e-20)
(-0.0008303379392036508 0.006328757930269287 -3.711644858875798e-20)
(-0.003279801893185658 0.0069572175462554306 -1.2185052786179863e-19)
(-0.006301401477987693 0.0072300732008500485 -4.97506407072696e-19)
(-0.009487152429209582 0.007243762949310234 -1.1846688468577192e-18)
(-0.012490278478884967 0.007057723186342238 -1.3586472520277412e-18)
(-0.015016342774434283 0.006720089291288324 -1.323696295223985e-18)
(-0.0168415740348341 0.006272875672201076 -1.6139255296513257e-18)
(-0.017810298768225114 0.005755194000206462 -2.409301980264251e-18)
(-0.01783544545239951 0.00520709464267224 -2.7342358891896032e-18)
(-0.01690368758830668 0.004672508879179648 -3.4526903072865226e-18)
(-0.015081704405933165 0.004200491623300378 -4.4392512839119835e-18)
(-0.01252218803172852 0.003845334771648165 -5.1984652480110815e-18)
(-0.009469687599382395 0.00366748457877596 -6.16736450229928e-18)
(-0.006262051364808558 0.003721951182696182 -5.560489899363168e-18)
(-0.003304425809531707 0.004025255357268103 -5.268668502218125e-18)
(-0.0010401735887723077 0.004506632103432154 -5.02149393554742e-18)
(0.00017617614047219898 0.0048551385872761125 -3.1035344652702864e-18)
(0.0005552128007633579 0.003606320338831043 -1.185087562629225e-18)
(0.00033843469606270046 -0.0006714973822334359 8.447156068635671e-20)
(-0.0014704367773891646 0.0012969073556231541 1.022534767896861e-18)
(-0.0055952505671816545 0.0033419474974264824 -1.1706439614302754e-19)
(-0.011680249167937112 0.0047087265986671 -8.863686775180071e-19)
(-0.018913768494370677 0.005372723251267751 -2.31594551520455e-18)
(-0.026482463602726214 0.005357379229827469 -4.101895374511264e-18)
(-0.03359737872567457 0.004744951197561694 -4.3133153134062536e-18)
(-0.03957437295386333 0.0036550203579722024 -3.641452191247739e-18)
(-0.043883730454189286 0.0022116918495737772 -4.285660565350752e-18)
(-0.04615528177187506 0.0005425068331767836 -7.573774982590315e-18)
(-0.046187013014586595 -0.0012176395800760392 -7.49452796732087e-18)
(-0.043957352457156026 -0.0029251285683430527 -9.974819738063023e-18)
(-0.03963540500628164 -0.004426235615685821 -1.3504028891235027e-17)
(-0.03358446226715689 -0.00556058976141917 -1.536536276349002e-17)
(-0.02635937374428802 -0.00616931228369854 -1.5577076577139432e-17)
(-0.018698390551356317 -0.006110069031096632 -1.649782881855891e-17)
(-0.011431878308360621 -0.005313019447411429 -1.6085482162515505e-17)
(-0.005338097310070218 -0.0038099695902605573 -1.230052308695925e-17)
(-0.0014267352141450135 -0.0017149693717244752 -9.318437373164368e-18)
(-0.00048398424189631826 2.804753734281792e-05 -4.001597143485537e-18)
(-0.0009164049373979985 0.0004800806176691938 1.5901922863447449e-18)
(-0.0038120145947194125 0.005117010078950539 4.0134398815603685e-18)
(-0.01067076143011949 0.009779298608427254 1.6821165289009043e-18)
(-0.020127525714440726 0.012951969602946542 1.2619619944207818e-18)
(-0.03088105578929708 0.014468730305455828 -1.5868436359684428e-18)
(-0.04193932374118399 0.014331328876782436 -4.153162765420897e-18)
(-0.05223721732784329 0.012705114122509754 -6.0215391676251324e-18)
(-0.060838220971744975 0.009864337996000843 -6.925920329875441e-18)
(-0.06701926864796223 0.006117245480311202 -8.596864978503799e-18)
(-0.07027175236899624 0.0017925653160600719 -1.1068962783513849e-17)
(-0.07031856921373278 -0.0027601448113221145 -1.2481397719122648e-17)
(-0.06713097978062468 -0.007169744918849038 -1.4940275669968078e-17)
(-0.06094067580093439 -0.011046838635932112 -1.945982440499226e-17)
(-0.05224116465140567 -0.013996982809714252 -2.2487355518447684e-17)
(-0.041778879551898455 -0.015645832595938432 -2.4265007889406287e-17)
(-0.03054662513588257 -0.015684283497693827 -2.453635877432779e-17)
(-0.01966335053526284 -0.013966220699118119 -2.2770990321664868e-17)
(-0.010129171482744448 -0.010588487965783284 -1.909228542867488e-17)
(-0.003308805282242328 -0.005899164594190903 -1.3355226909872987e-17)
(-0.0006989670092004121 -0.0011346912170099505 -4.9888328084159895e-18)
(-0.0016000707727993203 0.0033203101570780276 3.418583319864443e-18)
(-0.005650564455048242 0.012300802625632327 7.069793293576664e-18)
(-0.015324681037047316 0.020266279830758988 1.4270778488267171e-18)
(-0.02810000455469296 0.0255907787937169 1.2103619653338478e-18)
(-0.04215102872088932 0.0279943742156281 -1.2807743340764802e-18)
(-0.0563520815386489 0.027499623899982728 -5.142313985622497e-18)
(-0.06942945604433474 0.024396953447001643 -9.29291149554348e-18)
(-0.08027356753528704 0.019153240817430483 -9.51234580541361e-18)
(-0.08804117638022355 0.012307231430427095 -1.1678278524955944e-17)
(-0.09213712583424143 0.004440813034743142 -1.4645668005030892e-17)
(-0.09223382122456304 -0.003826807355450341 -1.5660641288539424e-17)
(-0.08829070325979257 -0.011840011022677056 -1.7320160341568947e-17)
(-0.0805681665686084 -0.018914535793713907 -2.6396489608166497e-17)
(-0.06963188618716563 -0.024362955541045853 -3.0058699957472566e-17)
(-0.056348793761931824 -0.027539835998984553 -3.4139077037133785e-17)
(-0.04189911565927975 -0.027920601984754417 -3.450333271317716e-17)
(-0.027646612807185486 -0.02524356787673797 -3.119430976615476e-17)
(-0.01482495106148941 -0.01962577876368355 -2.796420455365564e-17)
(-0.0052756373967474705 -0.011609755611460467 -2.0134911870107152e-17)
(-0.0013082616396847256 -0.0029626802461066243 -8.006240042261476e-18)
(-0.0021181975234688365 0.006713049088949425 5.4155350089938964e-18)
(-0.007412927744150574 0.020955053623158318 9.739411292986529e-18)
(-0.019810436925981174 0.03272126201164869 4.143462959414705e-18)
(-0.03577614929472306 0.040341817489218064 3.195700874757576e-18)
(-0.052966995967269274 0.04351155766394621 2.7842873220474813e-19)
(-0.07009661724611638 0.04235580327049732 -6.38065087805981e-18)
(-0.08571089153638986 0.03734428537816221 -1.0599444313024091e-17)
(-0.0985749945477198 0.029171957992499293 -1.0486963917734103e-17)
(-0.10777283006405575 0.01863538555770338 -1.2841434691386855e-17)
(-0.11265818237382283 0.006591830356858295 -1.6169519253851087e-17)
(-0.1128680257416503 -0.006049267289076902 -1.720020341736498e-17)
(-0.10834091441886552 -0.018327786451961526 -2.0411458234122113e-17)
(-0.0993343959937354 -0.029241194010409918 -2.869565680972932e-17)
(-0.08643802609548484 -0.03777585129708428 -3.360321957022997e-17)
(-0.07058493144521613 -0.0429697499812849 -3.765496606262861e-17)
(-0.05309827882410859 -0.044021824970243054 -3.8180513112310777e-17)
(-0.03555850240688801 -0.040476576055514156 -3.6338396287251264e-17)
(-0.01942393963515354 -0.03237182438935637 -3.1591616770047225e-17)
(-0.0071138217920288125 -0.02029323854252754 -2.234889213071125e-17)
(-0.0019326451515648368 -0.006236103832379751 -8.981618737998062e-18)
(-0.0026601067268222814 0.011062057668211502 4.264906003014983e-18)
(-0.009150969254952079 0.03188000353235546 1.2537638903009887e-17)
(-0.024208516793073283 0.048168561719824934 8.193986112712639e-18)
(-0.04330110817560126 0.05830738349334398 6.711847445793554e-18)
(-0.06353339940599058 0.06213202655394372 5.8013209896159025e-18)
(-0.08344677905160067 0.05998933340693021 -9.60156142571269e-19)
(-0.1014314091989683 0.05261058130057782 -7.798622642137106e-18)
(-0.11616575766986566 0.04097277293483322 -8.89198985561044e-18)
(-0.12670046729854867 0.026160549830714815 -1.173384838152264e-17)
(-0.1323679997666699 0.009320326865229541 -1.6011959221964684e-17)
(-0.13278096917775967 -0.008343398478253427 -1.5578593834267828e-17)
(-0.12784542345870278 -0.02556010545450102 -1.796438385374885e-17)
(-0.11778283141347368 -0.040993194592259974 -2.5611994872876803e-17)
(-0.10315789541505262 -0.05327013574080486 -2.794465222883968e-17)
(-0.0849172953199688 -0.061055529697776285 -3.451346932791951e-17)
(-0.06448726100929497 -0.0631879654310398 -3.3416515674583015e-17)
(-0.04365109869177781 -0.058910870438996205 -3.392133403569226e-17)
(-0.024112047550476048 -0.04807033518554886 -2.8180693047591083e-17)
(-0.008928789145123222 -0.031201262427070012 -1.866590051921288e-17)
(-0.0024725878151426292 -0.0104272784614182 -8.307866020493015e-18)
(-0.003199403184470611 0.01636395724915393 3.1487574887577542e-18)
(-0.010892191812263535 0.04507023988930025 9.41046818935406e-18)
(-0.028627269840621736 0.06657049867306183 8.926135966544984e-18)
(-0.05082251070079589 0.07940974658610309 1.0125088805084121e-17)
(-0.0740016221009561 0.08373079759966298 9.115149686821064e-18)
(-0.09654221077715698 0.08023951097553896 5.3046748763663684e-18)
(-0.11671152765613534 0.07003025869110784 -1.5792862282224881e-18)
(-0.13314760819591315 0.05442467496514775 -5.290118294010264e-18)
(-0.14491454158673775 0.0348216527767122 -8.325758573219164e-18)
(-0.15135830234760456 0.012656335898708876 -1.0731067312274505e-17)
(-0.15208137696706361 -0.01058699951014426 -1.1215373385923513e-17)
(-0.14694635784103804 -0.033344545259941766 -1.1918722696681761e-17)
(-0.13610196862540577 -0.05395048771689978 -1.5980884640661304e-17)
(-0.12003089312427119 -0.07065198571935949 -1.8250279208909512e-17)
(-0.09962783837094076 -0.08168062740480576 -1.9777473305974657e-17)
(-0.07636727742066157 -0.08541112696429731 -2.085590135999159e-17)
(-0.05220881283894326 -0.08064527277135732 -1.9432314033367883e-17)
(-0.0291177436541182 -0.06687886705530337 -1.4681748912329833e-17)
(-0.010878898910146147 -0.04444649069854541 -1.0532872321369094e-17)
(-0.0030480343207801085 -0.015557437059467931 -4.181614466744016e-18)
(-0.0037747684290621404 0.02259742908552612 1.6785347626468785e-18)
(-0.012725981805823317 0.060464934302252436 2.5876090395829327e-18)
(-0.03320001454664498 0.08780458721206777 7.976413637717065e-18)
(-0.05845968092453986 0.10343718289728128 1.0080377325616906e-17)
(-0.08441750364838321 0.10800694016459475 9.622317311294156e-18)
(-0.10931801999559096 0.10274871344905065 6.690218988058864e-18)
(-0.13136117068547223 0.0892411481608236 2.0114979800425986e-18)
(-0.14921337360331627 0.06921816475841268 -1.950536756761247e-18)
(-0.16201821733865607 0.044410758850153186 -5.033810231024821e-18)
(-0.1691846735593004 0.016523459486972526 -7.079414312357078e-18)
(-0.17032912365476785 -0.012720725664352346 -7.911549410035156e-18)
(-0.16526362308669623 -0.04151099242226187 -8.514101584097092e-18)
(-0.15402319158164532 -0.06788484116644786 -1.0039896120279179e-17)
(-0.13693633573576994 -0.08970703881292726 -9.611224969982857e-18)
(-0.11475326643795518 -0.10472009597289912 -5.4921073208882275e-18)
(-0.08890706876832923 -0.11071237032934009 -9.99052748342475e-18)
(-0.06147041463870732 -0.10586191447555253 -8.555594841572857e-18)
(-0.034654823099218864 -0.0890969376135132 -1.5046781021044137e-18)
(-0.013080797686241626 -0.0603309754120375 -3.772283122034049e-18)
(-0.003718186631874739 -0.02177294135920506 -1.7850903527437884e-18)
(-0.004430630059953158 0.02984622840434809 1.4459464783141099e-18)
(-0.014724359567685141 0.07818583859696901 2.3488318456427716e-18)
(-0.03802764155589665 0.11191339009001425 9.1353931262888e-18)
(-0.06625765636915319 0.13028527680579344 1.3103836448088485e-17)
(-0.09467517135126458 0.13471379465478373 1.3376107244322436e-17)
(-0.12145973671922303 0.12718168042842473 1.013783073802298e-17)
(-0.14483767731586095 0.10989654888374556 5.309692114614151e-18)
(-0.163607439691781 0.08507572567579642 9.816322643202961e-19)
(-0.17708736448680262 0.05478766318202013 -2.3093258368345107e-18)
(-0.18482103537404188 0.020963219327681006 -4.3185347114063655e-18)
(-0.1864785558511497 -0.01450858987465905 -4.9451312467751356e-18)
(-0.18182332213387253 -0.04965276360421452 -4.922420219026213e-18)
(-0.17073450004190657 -0.08228021858270747 -6.333722849643027e-18)
(-0.1532977382909611 -0.10990382763566035 -5.318840753829032e-18)
(-0.12999004214410614 -0.12973781615115262 -5.050969745868169e-19)
(-0.10206086162123076 -0.13884999162130474 -5.0149779530435275e-18)
(-0.07157232232288314 -0.13456420795936272 -3.747598467624495e-18)
(-0.040910486341662916 -0.114941094945079 2.680663384453291e-18)
(-0.015653407520733457 -0.07914848586448592 -1.1203936485372217e-18)
(-0.004536627006586124 -0.02923440963539993 -8.849877291721865e-19)
(-0.005216766582191078 0.038229505263922735 2.2092745445930782e-18)
(-0.016969119379775188 0.09838763685323362 8.351992396438459e-18)
(-0.043204490364419895 0.1388852627394462 1.2259670880673533e-17)
(-0.07418699915301581 0.15968376545487956 2.0298308769609665e-17)
(-0.10448704503838646 0.16335155558586334 2.1328343247753643e-17)
(-0.13234976767564707 0.1529048612785842 1.513363881039349e-17)
(-0.1561761240459366 0.13135026572971567 8.538211458334833e-18)
(-0.17504550518366455 0.10145688287299671 3.4222466948833594e-18)
(-0.1885815285160637 0.06561524279974383 -3.558768116385458e-19)
(-0.19655988968863145 0.025908673496628645 -2.5608561117249066e-18)
(-0.19876438074305122 -0.0157185800595553 -2.5098281147073403e-18)
(-0.1949270840875555 -0.05725546405015959 1.0417595376285917e-19)
(-0.18473626842594654 -0.09640836433193627 -5.156260826647401e-18)
(-0.16793597510881092 -0.13042188777254088 -5.545710466504586e-18)
(-0.14456337439595476 -0.1559839318879247 -3.3779029005727103e-18)
(-0.11547364443951354 -0.16931402828062705 -5.5676576721651655e-18)
(-0.08250179901012966 -0.1666014178737719 -4.1900502219293474e-18)
(-0.048036548605787564 -0.14462257722633418 -2.6837725093810544e-19)
(-0.01872717715985301 -0.10129221178560736 -2.2818957429667487e-18)
(-0.005579953776821903 -0.03818021616317421 -1.4644796544081588e-18)
(-0.006229341517585841 0.04792388916635031 1.7462102898007324e-18)
(-0.019595412401404964 0.12126349668018248 3.244738683557453e-18)
(-0.04885051221819603 0.16860487809206964 1.1963297569384674e-17)
(-0.0821358751085603 0.19109518795506036 1.746529754221631e-17)
(-0.11332903743082828 0.19304049911448654 1.9062139556100344e-17)
(-0.14097750143392723 0.17885805869479163 1.602494005700369e-17)
(-0.16387957470338202 0.15254177903577762 1.0063384350028209e-17)
(-0.18159695642612567 0.11746393164399499 4.995836807549019e-18)
(-0.19422337554393568 0.07628790695107862 5.202121110393878e-19)
(-0.20188620369955984 0.031137157660595157 -2.7802975731407856e-18)
(-0.2045622755415741 -0.01614147534550678 -3.2589997954174497e-18)
(-0.20199110546964122 -0.06367894953935012 -4.554250157973365e-18)
(-0.19365616200901656 -0.10926256368236228 -9.251583484905112e-18)
(-0.1788695828166788 -0.15002919055606362 -9.039533845680072e-18)
(-0.15703688199294336 -0.18222005455718646 -1.4136840026582973e-18)
(-0.12833383200045737 -0.20112367304412976 -9.338710814811593e-18)
(-0.09402206208728485 -0.2014831804356626 -7.040925668260449e-18)
(-0.0561447422162407 -0.17823240565813023 2.6125175620686985e-18)
(-0.022466846085177707 -0.12723347344748992 -5.9582001822261515e-18)
(-0.006967319436664769 -0.048942991074973734 -4.085702266653346e-18)
(-0.0076670299803592145 0.059229103800665206 3.1373491194231262e-18)
(-0.02284994218487815 0.14707378089300607 8.957876932632958e-18)
(-0.055137058541663765 0.20077894378979982 1.4778266876011783e-17)
(-0.08985850315854262 0.22357120264863056 1.8808172566953562e-17)
(-0.12031853768423813 0.2223622907203278 2.1066165191108232e-17)
(-0.14578012255955305 0.20341514216626647 1.8807942176016578e-17)
(-0.1657530329028827 0.17188887796084407 9.869484897136494e-18)
(-0.1805318973033192 0.13176397446424476 6.142337875913049e-18)
(-0.19086492458426832 0.08587433553969742 5.9876000513185e-19)
(-0.19735520132481324 0.0362266284702741 -5.9943950484248996e-18)
(-0.20026047833619812 -0.015620783572463699 -3.6352268684078525e-18)
(-0.1993893852360148 -0.06816291678266174 -5.836997041431816e-18)
(-0.1940463185824359 -0.11951804229113987 -1.8544515852477855e-17)
(-0.18306425019856837 -0.16697275779314033 -2.007718457350583e-17)
(-0.1650394741455912 -0.20652711026443749 -1.270642287374867e-17)
(-0.139131911311791 -0.2325714758660712 -2.0709564631211785e-17)
(-0.1055303948450908 -0.23811798624602218 -1.7725688129080047e-17)
(-0.06529235429204291 -0.2155554533585718 -1.0086803769441527e-17)
(-0.027130608408917126 -0.15747199051357866 -1.814111284336433e-17)
(-0.008925504792271347 -0.06198294644886688 -1.2525221715599253e-17)
(-0.009938131937942076 0.07266779836658714 4.8512592588370456e-18)
(-0.027176009665464823 0.176139656094782 1.5704787453427636e-17)
(-0.06226891226802438 0.2347810567533985 2.0497493272815547e-17)
(-0.09680863676332935 0.25554077539830367 2.8217115705262204e-17)
(-0.12394912872885615 0.2491604229221372 2.855077136273039e-17)
(-0.144351892233994 0.22423244379529805 2.787614055475112e-17)
(-0.15864169875776282 0.187191029707532 1.6378550723863087e-17)
(-0.1681178217973658 0.14253124291620584 8.282239770496202e-18)
(-0.17434722207657752 0.09307476365011223 2.3291095251800624e-18)
(-0.17849878404503558 0.04050767553657254 -9.414474591286494e-19)
(-0.1811809675296786 -0.014114729673201109 -1.6389418712371026e-20)
(-0.1823475153474357 -0.06989378480108699 5.235687658102927e-18)
(-0.1812061451945892 -0.12557308555172744 -5.103155796635772e-18)
(-0.17615617959918953 -0.1789459543940643 -8.260034607846003e-18)
(-0.16489945340761256 -0.22615437012727505 -8.422470717290614e-18)
(-0.1452698730735692 -0.2609501762223356 -1.0539441824029563e-17)
(-0.11575522107687469 -0.27447574852281875 -9.76465557428056e-18)
(-0.07536711036250711 -0.25579008295563405 -8.153968280778618e-18)
(-0.03312956162419549 -0.19247172526020268 -8.614436779749667e-18)
(-0.011916137835255471 -0.07797898921662037 -4.55117754704646e-18)
(-0.013783474305120322 0.08927508348287694 5.762611581851893e-18)
(-0.03323735463042991 0.208788125841346 1.5909967644787844e-17)
(-0.07025039256111502 0.26923619067258875 2.4760398273171238e-17)
(-0.10168352218919358 0.28435373787933965 3.376151248743487e-17)
(-0.12155844963361716 0.2701891719334683 3.784006515981939e-17)
(-0.1329441893085738 0.23803367925626917 3.061747591757772e-17)
(-0.13803403651455995 0.19553345191833846 1.900516360727984e-17)
(-0.1393599501535107 0.14742465402361152 8.210699286192782e-18)
(-0.13937426483821425 0.09621876615810432 1.4921004338916416e-18)
(-0.1398021355871927 0.04303729562787266 -2.360739970778493e-19)
(-0.14160828149671706 -0.011772021304090918 4.219676660398056e-19)
(-0.14495686114423456 -0.06812792102910716 9.202078046164057e-18)
(-0.14910330014789794 -0.12567907507547874 1.7388551330909494e-18)
(-0.15220698880154623 -0.18313965016200245 -1.5000543244593136e-18)
(-0.15119976318827683 -0.2373726077699867 -3.3617137790784516e-18)
(-0.14245601265987184 -0.28211308098355065 -4.902742774929799e-18)
(-0.12214610771304232 -0.30689444574297714 -5.226107233272177e-18)
(-0.08573569220194938 -0.29689024982098017 -4.867815241811415e-18)
(-0.04103017330882485 -0.23255445380653786 -4.235201023318117e-18)
(-0.016739462495234562 -0.09823414392831789 -1.8904066120933878e-18)
(-0.020287671837764087 0.11117659086605282 6.8841458874320026e-18)
(-0.04193943834038754 0.2450413306832604 1.694668164093474e-17)
(-0.07830024598980014 0.30103975432992996 2.721603297610963e-17)
(-0.10137797471193884 0.3053406095831889 3.820688582407312e-17)
(-0.10825146599876039 0.2805326672231761 3.988111089586201e-17)
(-0.105572315477654 0.24039376969327833 3.7100608677869316e-17)
(-0.09743343019945201 0.19331524173352715 2.0753774016653305e-17)
(-0.08765302508480147 0.14372875357538153 4.078899983716058e-18)
(-0.07941068030207736 0.09341326538906987 -4.0338538006479135e-18)
(-0.0747845896776989 0.04267528750796259 -1.9694562083531493e-18)
(-0.07497434085164816 -0.008979396149041485 -5.845340591044184e-18)
(-0.0803663170964467 -0.06238545310033488 7.332164467649717e-18)
(-0.0904486721941671 -0.11826164043928038 6.102640098668325e-18)
(-0.1035136027063683 -0.17659919088850962 3.1408434311597795e-18)
(-0.11618732278209262 -0.23566731198028384 6.002885381321582e-19)
(-0.12368970162431883 -0.2902456526616276 -1.2289570933726309e-18)
(-0.11971014812205008 -0.3293047780584934 -2.1433660504112237e-18)
(-0.0945706464310314 -0.3344146114722185 -2.3408091401656278e-18)
(-0.05163997819017234 -0.27711570060294516 -1.9694641445772707e-18)
(-0.024572757958022346 -0.1250684069900123 -8.184371089552682e-19)
(-0.030655770851388025 0.14083624527597208 5.495321450952342e-18)
(-0.05397537922578296 0.28319260135411084 1.622653144913205e-17)
(-0.08326371610145862 0.32494251810551517 2.6457523869196496e-17)
(-0.08877014587753933 0.312358245847282 3.715912503908554e-17)
(-0.07487242333937714 0.27457232596626896 4.369278090746997e-17)
(-0.05255223375642592 0.2268904409150762 3.9623884144350464e-17)
(-0.027516853938203977 0.1774115266807121 2.3155461683740372e-17)
(-0.00446008302828337 0.12937840803537232 9.976283290214629e-18)
(0.013255102580732009 0.08334562238425318 2.880914657004719e-18)
(0.023673057460440447 0.03861628961394735 2.8010315753826364e-18)
(0.025655214460290777 -0.006145942877829025 6.473882242648189e-18)
(0.018675976557003173 -0.05260071182150266 2.1123019790467115e-17)
(0.0028465441876116527 -0.10247792346331817 1.2116544329329813e-17)
(-0.02075268372520147 -0.1571801031436361 6.879065530232958e-18)
(-0.049295540830037364 -0.21696356548069184 3.4345640190906847e-18)
(-0.07789077986205446 -0.2790837276508681 1.1715000972697003e-18)
(-0.09873089641313632 -0.3339594406305125 -1.3517803795761547e-19)
(-0.0964346986215156 -0.36085187124496687 -7.094135826111093e-19)
(-0.06476636086837458 -0.32243971944401173 -7.37093972495757e-19)
(-0.03675544748760609 -0.16030532320924387 -3.1706209696665637e-19)
(-0.04262318167666646 0.18132294511251815 2.873740497562354e-18)
(-0.06406150080128291 0.31725081244297226 1.1476121581130715e-17)
(-0.07332638481839203 0.33145087111400495 2.2934089217820636e-17)
(-0.04828888089539254 0.297565580746229 3.4393344739371824e-17)
(-0.005466945849901913 0.24651098743616906 3.8310592992543146e-17)
(0.04075949624544548 0.19379744228299972 3.687965480526174e-17)
(0.08418321655197893 0.14589487028088804 2.2447356324245553e-17)
(0.12036755619194126 0.10359407246389653 1.0405049390522231e-17)
(0.14682098792878182 0.06574290284380156 3.804264164801943e-18)
(0.16243131984987344 0.030638312788961404 3.4360699679692834e-18)
(0.1665474960250816 -0.0036822783985133063 7.279602653475735e-18)
(0.15868224591744035 -0.03935957397454341 2.2097318337007327e-17)
(0.13846562147792205 -0.07874076888709279 1.3957284405086235e-17)
(0.10589990499270258 -0.12433952250612687 8.566151028053562e-18)
(0.0621356346400477 -0.17853241108708878 4.921311159065175e-18)
(0.01052553608392786 -0.24240935797333862 2.485058970063293e-18)
(-0.04152759279748327 -0.3105347159427341 9.903504764183632e-19)
(-0.07565207485533704 -0.3630900428230728 2.017706561006395e-19)
(-0.07204160479724687 -0.36075847282636914 -9.337457391782314e-20)
(-0.04918095645994631 -0.20849453219678596 -7.260236142999204e-20)
(-0.03545525273404802 0.2475527138695829 -4.081297533554e-18)
(-0.05164000668987976 0.33441014475494135 6.418057469669361e-18)
(-0.017800708289449334 0.2940957145266461 1.7150611707648764e-17)
(0.051535136457080015 0.23952554610763538 2.716234044677062e-17)
(0.12618498411007156 0.18321300328069615 3.160239487333283e-17)
(0.19498669874759425 0.13433722427044129 3.324281140853732e-17)
(0.2530315735276381 0.09593337860651625 1.975589861721005e-17)
(0.2976839963712153 0.0655629186228382 6.5421625144586475e-18)
(0.3287777786975806 0.040414363351658524 -1.8076738069083657e-19)
(0.34684179731106946 0.018289758557049427 -1.5306453633426767e-19)
(0.3521041681883248 -0.0027506175360108077 -2.9604518681166755e-18)
(0.3443210723449391 -0.024613454778509798 1.12607135318375e-17)
(0.3227109992921167 -0.04944120169594291 1.1633238682192868e-17)
(0.2859649481870802 -0.07990481542715559 8.284689560238715e-18)
(0.23248616101349284 -0.11962097175471564 5.113108570905047e-18)
(0.16246736695056044 -0.17330315318496023 2.836840727304173e-18)
(0.08085864211834709 -0.2418274819927536 1.3910503868161016e-18)
(-0.0014469717206440655 -0.3153722829514077 5.729296599416358e-19)
(-0.05214002038339533 -0.3751990746137402 1.793804568162488e-19)
(-0.036024047881751606 -0.28451252571943925 3.1535014763736993e-20)
(0.04414990293847506 0.29484869297645816 -1.1959020550870783e-18)
(0.021787485896624176 0.3009442825293695 -3.4045820539732383e-18)
(0.1383958807796881 0.20097728579636026 9.511166545613416e-18)
(0.26709971827407825 0.13858592900329067 1.877326293575508e-17)
(0.3636577625507668 0.09370548421525106 2.5118597162368594e-17)
(0.43908112466982635 0.06157573447719466 2.7269147224518262e-17)
(0.4966239350846742 0.040488578842579476 1.6503717910254752e-17)
(0.5373088455785255 0.026133814475894454 7.20129749272801e-18)
(0.5640481233633864 0.015363578969076532 2.227210452144593e-18)
(0.579121130790591 0.00643539960645912 1.8402033190910546e-18)
(0.5835231410385504 -0.001820950882956012 4.7570603150789636e-18)
(0.5773042944361764 -0.010413146785844457 1.774194991375088e-17)
(0.5596206095734382 -0.020504860567891633 1.1801036911000526e-17)
(0.5283911100685299 -0.033812586987236645 7.102264900548116e-18)
(0.47954445745745733 -0.053367987656737434 4.1482697650834306e-18)
(0.4093332216210253 -0.08475854628881632 2.3095861437346065e-18)
(0.3150053487666978 -0.13471138501242705 1.1890397574646233e-18)
(0.17770776730988597 -0.20876353007995363 5.447460237768075e-19)
(0.033881742159248926 -0.31748919831279876 2.0928521443123714e-19)
(0.057023910791871676 -0.3169963198321404 5.097951595197465e-20)
(0.3501734783739761 0.05475529853513628 -1.1154262819066052e-18)
(0.38093479484229 0.15578982455407403 -6.8431020684960174e-18)
(0.543159400822793 0.12752552651212232 2.318523315220813e-18)
(0.6810215610274966 0.08631789879137769 1.1012244514989292e-17)
(0.7515482852731131 0.052002966036472205 1.7295213636880992e-17)
(0.7929534691594505 0.030797802980675963 1.339657501731715e-17)
(0.82026207406532 0.01942462282375949 7.89132995240373e-18)
(0.8374471088408253 0.013181790021215226 3.5284609216485244e-18)
(0.8478056278980939 0.009395161915205135 1.4727062353382375e-18)
(0.8532317994608309 0.006711011040650636 1.305044552124824e-18)
(0.8543595735170869 0.004389489120298537 3.343773346588467e-18)
(0.8512273359283055 0.0019600701625259133 1.179245547359925e-17)
(0.8434114504109413 -0.0010848342169687388 6.393716576019651e-18)
(0.8296762562161334 -0.005693982698809032 3.1988668378563408e-18)
(0.8068978262275063 -0.013700841735877418 1.6927139619788287e-18)
(0.7707425596746348 -0.029140417601505302 9.1530126421448e-19)
(0.7118850396201878 -0.06003298768594795 4.75263209668163e-19)
(0.5838592073427336 -0.10637816090771503 2.242658154411527e-19)
(0.39831532152304844 -0.14527290603168516 8.993834301202362e-20)
(0.3949214255948033 -0.068302913410712 2.316954520676123e-20)
)
;

boundaryField
{
    movingWall
    {
        type            fixedValue;
        value           uniform (1.0 0.0 0.0);
    }
    fixedWalls
    {
        type            noSlip;
    }
    frontAndBack
    {
        type            empty;
    }
}

// ************************************************************************* //
